fcc Si                                  
   3.90000000000000     
     0.700751    0.700751    0.000000
     0.000000    0.700751    0.700751
     0.700751    0.000000    0.700751
   Si
     2
Direct
  0.000000  0.000000  0.000000
  0.250000  0.250000  0.250000
 
   32   32   32
 -7.7211     -5.9386     -1.1809      5.0421      10.935      15.098      16.950      16.749      15.305      13.501    
  11.745      10.189      8.9072      7.9202      7.2251      6.8129      6.6763      6.8128      7.2251      7.9202    
  8.9072      10.189      11.745      13.501      15.305      16.749      16.950      15.098      10.935      5.0421    
 -1.1809     -5.9386     -5.9386     -2.4584      3.3432      9.6662      14.814      17.783      18.471      17.492    
  15.772      13.965      12.287      10.842      9.6742      8.7947      8.2067      7.9120      7.9120      8.2067    
  8.7947      9.6742      10.842      12.287      13.965      15.772      17.492      18.471      17.783      14.814    
  9.6662      3.3432     -2.4585     -5.9387     -1.1809      3.3432      9.1773      14.575      18.238      19.698    
  19.288      17.815      16.067      14.364      12.834      11.538      10.502      9.7427      9.2772      9.1202    
  9.2773      9.7427      10.502      11.538      12.834      14.364      16.068      17.815      19.288      19.698    
  18.238      14.575      9.1773      3.3432     -1.1809     -2.8876      5.0421      9.6662      14.575      18.381    
  20.337      20.469      19.375      17.821      16.216      14.708      13.371      12.239      11.339      10.708    
  10.380      10.380      10.708      11.339      12.239      13.371      14.708      16.216      17.821      19.375    
  20.469      20.337      18.381      14.575      9.6662      5.0422      2.2295      2.2295      10.935      14.814    
  18.238      20.337      20.881      20.221      18.993      17.618      16.259      14.994      13.858      12.882    
  12.114      11.617      11.445      11.617      12.114      12.882      13.858      14.994      16.259      17.618    
  18.993      20.221      20.881      20.337      18.238      14.814      10.935      7.8530      6.6778      7.8530    
  15.098      17.783      19.698      20.469      20.221      19.405      18.376      17.287      16.216      15.189    
  14.229      13.387      12.747      12.397      12.397      12.747      13.387      14.229      15.189      16.216    
  17.287      18.376      19.405      20.221      20.469      19.698      17.783      15.098      12.465      10.832    
  10.832      12.465      16.950      18.471      19.288      19.375      18.993      18.376      17.648      16.874    
  16.067      15.234      14.410      13.682      13.168      12.980      13.168      13.682      14.410      15.234    
  16.068      16.874      17.648      18.376      18.993      19.375      19.288      18.471      16.950      15.122    
  13.625      13.047      13.625      15.122      16.749      17.492      17.815      17.821      17.618      17.287    
  16.874      16.375      15.772      15.074      14.341      13.697      13.313      13.313      13.697      14.341    
  15.074      15.772      16.375      16.874      17.287      17.618      17.821      17.815      17.492      16.749    
  15.680      14.604      13.926      13.926      14.604      15.680      15.305      15.772      16.067      16.216    
  16.259      16.216      16.067      15.772      15.305      14.678      13.989      13.438      13.226      13.438    
  13.989      14.678      15.305      15.772      16.067      16.216      16.259      16.216      16.067      15.772    
  15.305      14.678      13.989      13.438      13.226      13.438      13.989      14.678      13.501      13.965    
  14.364      14.708      14.994      15.189      15.234      15.074      14.678      14.080      13.458      13.060    
  13.060      13.458      14.080      14.678      15.074      15.234      15.189      14.994      14.708      14.364    
  13.965      13.501      12.983      12.461      12.024      11.771      11.770      12.024      12.461      12.983    
  11.745      12.287      12.834      13.371      13.858      14.229      14.410      14.341      13.989      13.458    
  12.981      12.790      12.981      13.458      13.989      14.341      14.410      14.229      13.858      13.371    
  12.834      12.287      11.745      11.219      10.731      10.321      10.044      9.9460      10.044      10.321    
  10.731      11.219      10.189      10.842      11.538      12.239      12.882      13.387      13.682      13.697    
  13.438      13.060      12.790      12.790      13.060      13.438      13.697      13.682      13.387      12.882    
  12.239      11.538      10.842      10.189      9.5996      9.0868      8.6687      8.3691      8.2117      8.2117    
  8.3692      8.6688      9.0868      9.5995      8.9072      9.6742      10.502      11.339      12.114      12.747    
  13.168      13.313      13.226      13.060      12.981      13.060      13.226      13.313      13.168      12.747    
  12.114      11.339      10.502      9.6741      8.9072      8.2311      7.6606      7.2043      6.8696      6.6644    
  6.5952      6.6645      6.8696      7.2043      7.6606      8.2311      7.9202      8.7947      9.7427      10.708    
  11.617      12.397      12.980      13.313      13.438      13.458      13.458      13.438      13.313      12.980    
  12.397      11.617      10.708      9.7427      8.7947      7.9201      7.1540      6.5131      6.0025      5.6218    
  5.3692      5.2431      5.2431      5.3691      5.6217      6.0025      6.5131      7.1540      7.2251      8.2067    
  9.2772      10.380      11.445      12.397      13.168      13.697      13.989      14.080      13.989      13.697    
  13.168      12.397      11.445      10.380      9.2773      8.2068      7.2251      6.3684      5.6534      5.0827    
  4.6509      4.3501      4.1728      4.1142      4.1727      4.3500      4.6509      5.0827      5.6534      6.3684    
  6.8129      7.9120      9.1202      10.380      11.617      12.747      13.682      14.341      14.678      14.678    
  14.341      13.682      12.747      11.617      10.380      9.1202      7.9120      6.8129      5.8585      5.0641    
  4.4292      3.9440      3.5950      3.3699      3.2597      3.2597      3.3700      3.5951      3.9440      4.4292    
  5.0640      5.8584      6.6763      7.9120      9.2773      10.708      12.114      13.387      14.410      15.074    
  15.305      15.074      14.410      13.387      12.114      10.708      9.2773      7.9120      6.6763      5.6080    
  4.7217      4.0140      3.4702      3.0716      2.8004      2.6431      2.5916      2.6431      2.8004      3.0715    
  3.4702      4.0140      4.7217      5.6080      6.8128      8.2067      9.7427      11.339      12.882      14.229    
  15.234      15.772      15.772      15.234      14.229      12.882      11.339      9.7427      8.2068      6.8129    
  5.6080      4.6096      3.8128      3.1992      2.7445      2.4252      2.2224      2.1241      2.1241      2.2224    
  2.4251      2.7445      3.1992      3.8129      4.6096      5.6080      7.2251      8.7947      10.502      12.239    
  13.858      15.189      16.068      16.375      16.067      15.189      13.858      12.239      10.502      8.7947    
  7.2251      5.8585      4.7217      3.8128      3.1112      2.5876      2.2127      1.9619      1.8179      1.7709    
  1.8179      1.9619      2.2127      2.5876      3.1112      3.8129      4.7217      5.8585      7.9202      9.6742    
  11.538      13.371      14.994      16.216      16.874      16.874      16.216      14.994      13.371      11.538    
  9.6741      7.9201      6.3684      5.0641      4.0140      3.1992      2.5876      2.1439      1.8373      1.6447    
  1.5518      1.5518      1.6447      1.8373      2.1440      2.5877      3.1992      4.0139      5.0640      6.3684    
  8.9072      10.842      12.834      14.708      16.259      17.287      17.648      17.287      16.259      14.708    
  12.834      10.842      8.9072      7.1540      5.6534      4.4292      3.4702      2.7445      2.2127      1.8373    
  1.5887      1.4468      1.4007      1.4468      1.5887      1.8373      2.2127      2.7445      3.4702      4.4292    
  5.6534      7.1540      10.189      12.287      14.364      16.216      17.618      18.376      18.376      17.618    
  16.216      14.364      12.287      10.189      8.2311      6.5131      5.0827      3.9440      3.0716      2.4252    
  1.9619      1.6447      1.4468      1.3516      1.3516      1.4468      1.6447      1.9618      2.4251      3.0715    
  3.9440      5.0828      6.5131      8.2310      11.745      13.965      16.068      17.821      18.993      19.405    
  18.993      17.821      16.067      13.965      11.745      9.5996      7.6606      6.0025      4.6509      3.5950    
  2.8004      2.2224      1.8179      1.5518      1.4007      1.3516      1.4007      1.5518      1.8179      2.2224    
  2.8004      3.5950      4.6509      6.0025      7.6606      9.5996      13.501      15.772      17.815      19.375    
  20.221      20.221      19.375      17.815      15.772      13.501      11.219      9.0868      7.2043      5.6218    
  4.3501      3.3699      2.6431      2.1241      1.7709      1.5518      1.4468      1.4468      1.5518      1.7709    
  2.1241      2.6431      3.3700      4.3500      5.6217      7.2042      9.0868      11.219      15.305      17.492    
  19.288      20.469      20.881      20.469      19.288      17.492      15.305      12.983      10.731      8.6687    
  6.8696      5.3692      4.1728      3.2597      2.5916      2.1241      1.8179      1.6447      1.5887      1.6447    
  1.8179      2.1241      2.5916      3.2597      4.1728      5.3692      6.8696      8.6688      10.731      12.983    
  16.749      18.471      19.698      20.337      20.337      19.698      18.471      16.749      14.678      12.461    
  10.321      8.3691      6.6644      5.2431      4.1142      3.2597      2.6431      2.2224      1.9619      1.8373    
  1.8373      1.9618      2.2224      2.6431      3.2597      4.1142      5.2431      6.6645      8.3692      10.321    
  12.461      14.678      16.950      17.783      18.238      18.381      18.238      17.783      16.950      15.680    
  13.989      12.024      10.044      8.2117      6.5952      5.2431      4.1727      3.3700      2.8004      2.4251    
  2.2127      2.1440      2.2127      2.4251      2.8004      3.3700      4.1728      5.2431      6.5952      8.2117    
  10.044      12.024      13.989      15.680      15.098      14.814      14.575      14.575      14.814      15.098    
  15.122      14.604      13.438      11.771      9.9460      8.2117      6.6645      5.3691      4.3500      3.5951    
  3.0715      2.7445      2.5876      2.5877      2.7445      3.0715      3.5950      4.3500      5.3692      6.6645    
  8.2117      9.9459      11.770      13.438      14.604      15.122      10.935      9.6662      9.1773      9.6662    
  10.935      12.465      13.625      13.926      13.226      11.770      10.044      8.3692      6.8696      5.6217    
  4.6509      3.9440      3.4702      3.1992      3.1112      3.1992      3.4702      3.9440      4.6509      5.6217    
  6.8696      8.3692      10.044      11.770      13.226      13.926      13.625      12.465      5.0421      3.3432    
  3.3432      5.0422      7.8530      10.832      13.047      13.926      13.438      12.024      10.321      8.6688    
  7.2043      6.0025      5.0827      4.4292      4.0140      3.8129      3.8129      4.0139      4.4292      5.0828    
  6.0025      7.2042      8.6688      10.321      12.024      13.438      13.926      13.047      10.832      7.8529    
 -1.1809     -2.4585     -1.1809      2.2295      6.6778      10.832      13.625      14.604      13.989      12.461    
  10.731      9.0868      7.6606      6.5131      5.6534      5.0640      4.7217      4.6096      4.7217      5.0640    
  5.6534      6.5131      7.6606      9.0868      10.731      12.461      13.989      14.604      13.625      10.832    
  6.6778      2.2296     -5.9386     -5.9387     -2.8876      2.2295      7.8530      12.465      15.122      15.680    
  14.678      12.983      11.219      9.5995      8.2311      7.1540      6.3684      5.8584      5.6080      5.6080    
  5.8585      6.3684      7.1540      8.2310      9.5996      11.219      12.983      14.678      15.680      15.122    
  12.465      7.8529      2.2296     -2.8874     -5.9386     -2.4584      3.3432      9.6662      14.814      17.783    
  18.471      17.492      15.772      13.965      12.287      10.842      9.6742      8.7947      8.2067      7.9120    
  7.9120      8.2067      8.7947      9.6742      10.842      12.287      13.965      15.772      17.492      18.471    
  17.783      14.814      9.6662      3.3432     -2.4585     -5.9387     -2.4584      2.3418      8.5470      14.318    
  18.283      19.938      19.616      18.149      16.375      14.641      13.082      11.760      10.702      9.9257    
  9.4492      9.2884      9.4492      9.9257      10.702      11.760      13.082      14.641      16.375      18.149    
  19.616      19.938      18.283      14.318      8.5469      2.3416     -2.4585     -4.2674      3.3432      8.5470    
  14.111      18.495      20.856      21.197      20.145      18.542      16.874      15.304      13.910      12.726    
  11.783      11.118      10.772      10.772      11.118      11.783      12.726      13.910      15.305      16.874    
  18.542      20.145      21.197      20.856      18.495      14.111      8.5469      3.3432     0.18827     0.18829    
  9.6662      14.318      18.495      21.169      22.041      21.480      20.196      18.735      17.287      15.937    
  14.718      13.664      12.830      12.287      12.098      12.287      12.830      13.664      14.718      15.937    
  17.287      18.735      20.196      21.480      22.041      21.169      18.495      14.318      9.6662      5.9991    
  4.6052      5.9991      14.814      18.283      20.856      22.041      21.949      21.096      19.977      18.790    
  17.618      16.486      15.417      14.468      13.739      13.337      13.337      13.739      14.468      15.417    
  16.486      17.618      18.790      19.977      21.096      21.949      22.041      20.856      18.283      14.814    
  11.467      9.4065      9.4065      11.467      17.783      19.938      21.197      21.480      21.096      20.414    
  19.603      18.735      17.821      16.860      15.890      15.007      14.368      14.133      14.368      15.007    
  15.890      16.860      17.821      18.735      19.603      20.414      21.096      21.480      21.197      19.938    
  17.783      15.274      13.250      12.472      13.250      15.274      18.471      19.616      20.145      20.196    
  19.977      19.603      19.128      18.542      17.815      16.938      15.966      15.089      14.561      14.561    
  15.089      15.966      16.938      17.815      18.542      19.128      19.603      19.977      20.196      20.145    
  19.616      18.471      16.881      15.313      14.335      14.335      15.313      16.881      17.492      18.149    
  18.542      18.735      18.790      18.735      18.542      18.149      17.492      16.553      15.503      14.663    
  14.341      14.663      15.503      16.553      17.492      18.149      18.542      18.735      18.790      18.735    
  18.542      18.149      17.492      16.553      15.503      14.663      14.341      14.663      15.503      16.553    
  15.772      16.375      16.874      17.287      17.618      17.821      17.815      17.492      16.749      15.680    
  14.604      13.926      13.926      14.604      15.680      16.749      17.492      17.815      17.821      17.618    
  17.287      16.874      16.375      15.772      15.074      14.341      13.697      13.313      13.313      13.697    
  14.341      15.074      13.965      14.641      15.304      15.937      16.486      16.860      16.938      16.553    
  15.680      14.559      13.615      13.245      13.615      14.559      15.680      16.553      16.938      16.860    
  16.486      15.937      15.305      14.641      13.965      13.283      12.627      12.061      11.671      11.531    
  11.671      12.061      12.627      13.283      12.287      13.082      13.910      14.718      15.417      15.890    
  15.966      15.503      14.604      13.615      12.970      12.970      13.615      14.604      15.503      15.966    
  15.890      15.417      14.718      13.910      13.082      12.287      11.548      10.887      10.330      9.9217    
  9.7035      9.7035      9.9217      10.330      10.887      11.548      10.842      11.760      12.726      13.664    
  14.468      15.007      15.089      14.663      13.926      13.245      12.970      13.245      13.926      14.663    
  15.089      15.007      14.468      13.664      12.726      11.760      10.842      10.015      9.3024      8.7184    
  8.2805      8.0074      7.9144      8.0074      8.2806      8.7184      9.3023      10.015      9.6742      10.702    
  11.783      12.830      13.739      14.368      14.561      14.341      13.926      13.615      13.615      13.926    
  14.341      14.561      14.368      13.739      12.830      11.783      10.702      9.6742      8.7538      7.9701    
  7.3352      6.8541      6.5303      6.3674      6.3674      6.5303      6.8541      7.3352      7.9701      8.7539    
  8.7947      9.9257      11.118      12.287      13.337      14.133      14.561      14.663      14.604      14.559    
  14.604      14.663      14.561      14.133      13.337      12.287      11.118      9.9257      8.7947      7.7836    
  6.9246      6.2292      5.6970      5.3225      5.1002      5.0265      5.1002      5.3224      5.6969      6.2293    
  6.9246      7.7836      8.2067      9.4492      10.772      12.098      13.337      14.368      15.089      15.503    
  15.680      15.680      15.503      15.089      14.368      13.337      12.098      10.772      9.4492      8.2068    
  7.1009      6.1633      5.4036      4.8171      4.3924      4.1171      3.9819      3.9819      4.1171      4.3923    
  4.8171      5.4036      6.1633      7.1009      7.9120      9.2884      10.772      12.287      13.739      15.007    
  15.966      16.553      16.749      16.553      15.966      15.007      13.739      12.287      10.772      9.2883    
  7.9120      6.6962      5.6696      4.8386      4.1941      3.7188      3.3943      3.2058      3.1440      3.2058    
  3.3944      3.7188      4.1941      4.8386      5.6695      6.6962      7.9120      9.4492      11.118      12.830    
  14.468      15.890      16.938      17.492      17.492      16.938      15.890      14.468      12.830      11.118    
  9.4492      7.9120      6.5622      5.4272      4.5108      3.7989      3.2685      2.8951      2.6578      2.5427    
  2.5427      2.6578      2.8951      3.2685      3.7989      4.5108      5.4272      6.5622      8.2067      9.9257    
  11.783      13.664      15.417      16.860      17.815      18.149      17.815      16.860      15.417      13.664    
  11.783      9.9257      8.2068      6.6962      5.4272      4.4034      3.6075      3.0112      2.5835      2.2973    
  2.1332      2.0797      2.1332      2.2973      2.5835      3.0112      3.6076      4.4035      5.4273      6.6962    
  8.7947      10.702      12.726      14.718      16.486      17.821      18.542      18.542      17.821      16.486    
  14.718      12.726      10.702      8.7947      7.1009      5.6696      4.5108      3.6075      2.9276      2.4340    
  2.0932      1.8795      1.7765      1.7765      1.8795      2.0932      2.4341      2.9276      3.6076      4.5108    
  5.6696      7.1009      9.6742      11.760      13.910      15.937      17.618      18.735      19.128      18.735    
  17.618      15.937      13.910      11.760      9.6742      7.7836      6.1633      4.8386      3.7989      3.0112    
  2.4340      2.0271      1.7582      1.6050      1.5552      1.6050      1.7582      2.0272      2.4341      3.0112    
  3.7988      4.8386      6.1633      7.7836      10.842      13.082      15.305      17.287      18.790      19.603    
  19.603      18.790      17.287      15.305      13.082      10.842      8.7538      6.9246      5.4036      4.1941    
  3.2685      2.5835      2.0932      1.7582      1.5494      1.4492      1.4492      1.5494      1.7582      2.0932    
  2.5835      3.2685      4.1941      5.4036      6.9246      8.7539      12.287      14.641      16.874      18.735    
  19.977      20.414      19.977      18.735      16.874      14.641      12.287      10.015      7.9701      6.2292    
  4.8171      3.7188      2.8951      2.2973      1.8795      1.6050      1.4492      1.3986      1.4492      1.6050    
  1.8795      2.2973      2.8950      3.7188      4.8172      6.2292      7.9701      10.015      13.965      16.375    
  18.542      20.196      21.096      21.096      20.196      18.542      16.375      13.965      11.548      9.3024    
  7.3352      5.6970      4.3924      3.3943      2.6578      2.1332      1.7765      1.5552      1.4492      1.4492    
  1.5552      1.7765      2.1332      2.6578      3.3943      4.3924      5.6969      7.3352      9.3024      11.548    
  15.772      18.149      20.145      21.480      21.949      21.480      20.145      18.149      15.772      13.283    
  10.887      8.7184      6.8541      5.3225      4.1171      3.2058      2.5427      2.0797      1.7765      1.6050    
  1.5494      1.6050      1.7765      2.0797      2.5427      3.2058      4.1171      5.3224      6.8540      8.7184    
  10.887      13.283      17.492      19.616      21.197      22.041      22.041      21.197      19.616      17.492    
  15.074      12.627      10.330      8.2805      6.5303      5.1002      3.9819      3.1440      2.5427      2.1332    
  1.8795      1.7582      1.7582      1.8795      2.1332      2.5427      3.1440      3.9819      5.1002      6.5304    
  8.2805      10.330      12.627      15.074      18.471      19.938      20.856      21.169      20.856      19.938    
  18.471      16.553      14.341      12.061      9.9217      8.0074      6.3674      5.0265      3.9819      3.2058    
  2.6578      2.2973      2.0932      2.0272      2.0932      2.2973      2.6578      3.2058      3.9819      5.0266    
  6.3674      8.0074      9.9217      12.061      14.341      16.553      17.783      18.283      18.495      18.495    
  18.283      17.783      16.881      15.503      13.697      11.671      9.7035      7.9144      6.3674      5.1002    
  4.1171      3.3944      2.8951      2.5835      2.4341      2.4341      2.5835      2.8950      3.3943      4.1171    
  5.1002      6.3674      7.9143      9.7035      11.671      13.697      15.503      16.881      14.814      14.318    
  14.111      14.318      14.814      15.274      15.313      14.663      13.313      11.531      9.7035      8.0074    
  6.5303      5.3224      4.3923      3.7188      3.2685      3.0112      2.9276      3.0112      3.2685      3.7188    
  4.3924      5.3224      6.5304      8.0074      9.7035      11.531      13.313      14.663      15.313      15.274    
  9.6662      8.5469      8.5469      9.6662      11.467      13.250      14.335      14.341      13.313      11.671    
  9.9217      8.2806      6.8541      5.6969      4.8171      4.1941      3.7989      3.6076      3.6076      3.7988    
  4.1941      4.8172      5.6969      6.8540      8.2805      9.9217      11.671      13.313      14.341      14.336    
  13.250      11.467      3.3432      2.3416      3.3432      5.9991      9.4065      12.472      14.335      14.663    
  13.697      12.061      10.330      8.7184      7.3352      6.2293      5.4036      4.8386      4.5108      4.4035    
  4.5108      4.8386      5.4036      6.2292      7.3352      8.7184      10.330      12.061      13.697      14.663    
  14.336      12.472      9.4065      5.9991     -2.4585     -2.4585     0.18827      4.6052      9.4065      13.250    
  15.313      15.503      14.341      12.627      10.887      9.3023      7.9701      6.9246      6.1633      5.6695    
  5.4272      5.4273      5.6696      6.1633      6.9246      7.9701      9.3024      10.887      12.627      14.341    
  15.503      15.313      13.250      9.4065      4.6051     0.18823     -5.9387     -4.2674     0.18829      5.9991    
  11.467      15.274      16.881      16.553      15.074      13.283      11.548      10.015      8.7539      7.7836    
  7.1009      6.6962      6.5622      6.6962      7.1009      7.7836      8.7539      10.015      11.548      13.283    
  15.074      16.553      16.881      15.274      11.467      5.9991     0.18823     -4.2675     -1.1809      3.3432    
  9.1773      14.575      18.238      19.698      19.288      17.815      16.067      14.364      12.834      11.538    
  10.502      9.7427      9.2772      9.1202      9.2773      9.7427      10.502      11.538      12.834      14.364    
  16.068      17.815      19.288      19.698      18.238      14.575      9.1773      3.3432     -1.1809     -2.8876    
  3.3432      8.5470      14.111      18.495      20.856      21.197      20.145      18.542      16.874      15.304    
  13.910      12.726      11.783      11.118      10.772      10.772      11.118      11.783      12.726      13.910    
  15.305      16.874      18.542      20.145      21.197      20.856      18.495      14.111      8.5469      3.3432    
 0.18827     0.18829      9.1773      14.111      18.563      21.449      22.444      21.921      20.620      19.128    
  17.648      16.267      15.020      13.939      13.080      12.521      12.326      12.521      13.080      13.939    
  15.020      16.267      17.648      19.128      20.620      21.921      22.444      21.448      18.563      14.111    
  9.1773      5.2968      3.8231      5.2968      14.575      18.495      21.449      22.877      22.883      22.015    
  20.845      19.603      18.376      17.188      16.059      15.052      14.273      13.841      13.841      14.273    
  15.052      16.059      17.188      18.376      19.603      20.845      22.015      22.883      22.877      21.448    
  18.495      14.575      10.819      8.5142      8.5142      10.819      18.238      20.856      22.444      22.883    
  22.507      21.777      20.908      19.977      18.993      17.946      16.873      15.874      15.142      14.872    
  15.142      15.874      16.873      17.946      18.993      19.977      20.908      21.777      22.507      22.883    
  22.444      20.856      18.238      15.236      12.830      11.909      12.830      15.236      19.698      21.197    
  21.921      22.015      21.777      21.367      20.845      20.196      19.375      18.340      17.157      16.077    
  15.424      15.424      16.077      17.157      18.340      19.375      20.196      20.845      21.367      21.777    
  22.015      21.921      21.197      19.698      17.661      15.674      14.442      14.442      15.674      17.661    
  19.288      20.145      20.620      20.845      20.908      20.845      20.620      20.145      19.288      18.032    
  16.627      15.505      15.075      15.505      16.627      18.032      19.288      20.145      20.620      20.845    
  20.908      20.845      20.620      20.145      19.288      18.032      16.627      15.505      15.075      15.505    
  16.627      18.032      17.815      18.542      19.128      19.603      19.977      20.196      20.145      19.616    
  18.471      16.881      15.313      14.335      14.335      15.313      16.881      18.471      19.616      20.145    
  20.196      19.977      19.603      19.128      18.542      17.815      16.938      15.966      15.089      14.561    
  14.561      15.089      15.966      16.938      16.067      16.874      17.648      18.376      18.993      19.375    
  19.288      18.471      16.950      15.122      13.625      13.047      13.625      15.122      16.950      18.471    
  19.288      19.375      18.993      18.376      17.648      16.874      16.068      15.234      14.410      13.682    
  13.168      12.980      13.168      13.682      14.410      15.234      14.364      15.304      16.267      17.188    
  17.946      18.340      18.032      16.881      15.122      13.335      12.210      12.210      13.335      15.122    
  16.881      18.032      18.340      17.946      17.188      16.267      15.305      14.364      13.474      12.657    
  11.953      11.425      11.140      11.140      11.426      11.953      12.657      13.474      12.834      13.910    
  15.020      16.059      16.873      17.157      16.627      15.313      13.625      12.210      11.659      12.210    
  13.625      15.313      16.627      17.157      16.873      16.059      15.020      13.910      12.834      11.849    
  10.984      10.260      9.7066      9.3559      9.2355      9.3560      9.7066      10.260      10.984      11.849    
  11.538      12.726      13.939      15.052      15.874      16.077      15.505      14.335      13.047      12.210    
  12.210      13.047      14.336      15.505      16.077      15.874      15.052      13.939      12.726      11.538    
  10.454      9.5158      8.7436      8.1490      7.7432      7.5370      7.5370      7.7433      8.1490      8.7436    
  9.5158      10.454      10.502      11.783      13.080      14.273      15.142      15.424      15.075      14.335    
  13.625      13.335      13.625      14.336      15.075      15.424      15.142      14.273      13.080      11.783    