fcc Si                                  
   3.90000000000000     
     0.700751    0.700751    0.000000
     0.000000    0.700751    0.700751
     0.700751    0.000000    0.700751
   Si
     2
Direct
  0.000000  0.000000  0.000000
  0.250000  0.250000  0.250000
 
   32   32   32
 -.77210598566E+01 -.59386338152E+01 -.11809155042E+01 0.50420969215E+01 0.10934831600E+02
 0.15098340628E+02 0.16949718143E+02 0.16748908447E+02 0.15304568386E+02 0.13500696001E+02
 0.11744959774E+02 0.10189357980E+02 0.89072301704E+01 0.79201596735E+01 0.72251171324E+01
 0.68128557777E+01 0.66762642427E+01 0.68128457429E+01 0.72251203558E+01 0.79201762140E+01
 0.89072289684E+01 0.10189327128E+02 0.11744932812E+02 0.13500709961E+02 0.15304618943E+02
 0.16748965924E+02 0.16949769509E+02 0.15098393146E+02 0.10934885171E+02 0.50421361192E+01
 -.11809005578E+01 -.59386338135E+01 -.59386338152E+01 -.24583517560E+01 0.33432286530E+01
 0.96661738010E+01 0.14813552373E+02 0.17782834340E+02 0.18470789769E+02 0.17492145511E+02
 0.15772075403E+02 0.13964531082E+02 0.12286657193E+02 0.10842249770E+02 0.96741578293E+01
 0.87947105538E+01 0.82067461339E+01 0.79120389052E+01 0.79120179198E+01 0.82067196990E+01
 0.87947253046E+01 0.96741894111E+01 0.10842242160E+02 0.12286616460E+02 0.13964517586E+02
 0.15772112025E+02 0.17492196145E+02 0.18470834987E+02 0.17782903635E+02 0.14813649860E+02
 0.96662252234E+01 0.33431616857E+01 -.24584912951E+01 -.59387061163E+01 -.11809155042E+01
 0.33432286530E+01 0.91773358874E+01 0.14574692550E+02 0.18237878178E+02 0.19698370013E+02
 0.19288058900E+02 0.17814621662E+02 0.16067483892E+02 0.14364058918E+02 0.12834122161E+02
 0.11538181355E+02 0.10502063178E+02 0.97426807335E+01 0.92772483302E+01 0.91202171091E+01
 0.92772609397E+01 0.97426873094E+01 0.10502052467E+02 0.11538166840E+02 0.12834125009E+02
 0.14364078733E+02 0.16067501599E+02 0.17814632208E+02 0.19288080359E+02 0.19698409621E+02
 0.18237909549E+02 0.14574686649E+02 0.91773008724E+01 0.33431970418E+01 -.11809283046E+01
 -.28875764117E+01 0.50420969215E+01 0.96661738010E+01 0.14574692550E+02 0.18380676150E+02
 0.20336620077E+02 0.20468827864E+02 0.19374648260E+02 0.17821307639E+02 0.16215661388E+02
 0.14707942348E+02 0.13371021638E+02 0.12238917305E+02 0.11339474672E+02 0.10707798041E+02
 0.10380271990E+02 0.10380278170E+02 0.10707803497E+02 0.11339462445E+02 0.12238897500E+02
 0.13371020188E+02 0.14707963751E+02 0.16215684634E+02 0.17821320468E+02 0.19374659378E+02
 0.20468834500E+02 0.20336594263E+02 0.18380612856E+02 0.14574648833E+02 0.96662130817E+01
 0.50421946004E+01 0.22295342828E+01 0.22294817713E+01 0.10934831600E+02 0.14813552373E+02
 0.18237878178E+02 0.20336620077E+02 0.20880862683E+02 0.20221406842E+02 0.18992512336E+02
 0.17617692063E+02 0.16258601644E+02 0.14993707815E+02 0.13857826369E+02 0.12881739039E+02
 0.12114162184E+02 0.11617381367E+02 0.11444775781E+02 0.11617366576E+02 0.12114147130E+02
 0.12881734285E+02 0.13857829455E+02 0.14993714282E+02 0.16258613796E+02 0.17617709237E+02
 0.18992520824E+02 0.20221391981E+02 0.20880830165E+02 0.20336594610E+02 0.18237877786E+02
 0.14813571184E+02 0.10934851256E+02 0.78529607097E+01 0.66777751633E+01 0.78529507631E+01
 0.15098340628E+02 0.17782834340E+02 0.19698370013E+02 0.20468827864E+02 0.20221406842E+02
 0.19404913389E+02 0.18375749072E+02 0.17287384944E+02 0.16215665014E+02 0.15188520516E+02
 0.14228753612E+02 0.13387133041E+02 0.12746645730E+02 0.12397125663E+02 0.12397125694E+02
 0.12746643970E+02 0.13387128381E+02 0.14228751296E+02 0.15188528525E+02 0.16215684468E+02
 0.17287405409E+02 0.18375754934E+02 0.19404898882E+02 0.20221387299E+02 0.20468829149E+02
 0.19698397594E+02 0.17782858637E+02 0.15098328335E+02 0.12465339347E+02 0.10831885120E+02
 0.10831907572E+02 0.12465379735E+02 0.16949718143E+02 0.18470789769E+02 0.19288058900E+02
 0.19374648260E+02 0.18992512336E+02 0.18375749072E+02 0.17648286951E+02 0.16873958701E+02
 0.16067483973E+02 0.15233654267E+02 0.14409610657E+02 0.13681962179E+02 0.13167504548E+02
 0.12979956834E+02 0.13167513054E+02 0.13681969306E+02 0.14409614539E+02 0.15233664101E+02
 0.16067503366E+02 0.16873979620E+02 0.17648302391E+02 0.18375759981E+02 0.18992520724E+02
 0.19374654705E+02 0.19288067811E+02 0.18470805326E+02 0.16949734824E+02 0.15121995840E+02
 0.13625184433E+02 0.13046859553E+02 0.13625184500E+02 0.15121987788E+02 0.16748908447E+02
 0.17492145511E+02 0.17814621662E+02 0.17821307639E+02 0.17617692063E+02 0.17287384944E+02
 0.16873958701E+02 0.16375156227E+02 0.15772071930E+02 0.15074183180E+02 0.14341264163E+02
 0.13697020518E+02 0.13313112385E+02 0.13313113762E+02 0.13697026277E+02 0.14341277567E+02
 0.15074203818E+02 0.15772092875E+02 0.16375172415E+02 0.16873975698E+02 0.17287408879E+02
 0.17617714822E+02 0.17821318625E+02 0.17814631383E+02 0.17492175190E+02 0.16748953347E+02
 0.15679588474E+02 0.14603906548E+02 0.13926376506E+02 0.13926382475E+02 0.14603906420E+02
 0.15679559460E+02 0.15304568386E+02 0.15772075403E+02 0.16067483892E+02 0.16215661388E+02
 0.16258601644E+02 0.16215665014E+02 0.16067483973E+02 0.15772071930E+02 0.15304568508E+02
 0.14678042941E+02 0.13988855597E+02 0.13437817811E+02 0.13226160835E+02 0.13437829894E+02
 0.13988873132E+02 0.14678062846E+02 0.15304591267E+02 0.15772093590E+02 0.16067499883E+02
 0.16215679544E+02 0.16258621659E+02 0.16215683152E+02 0.16067499929E+02 0.15772090066E+02
 0.15304591326E+02 0.14678066476E+02 0.13988873156E+02 0.13437826305E+02 0.13226160793E+02
 0.13437821316E+02 0.13988855493E+02 0.14678039239E+02 0.13500696001E+02 0.13964531082E+02
 0.14364058918E+02 0.14707942348E+02 0.14993707815E+02 0.15188520516E+02 0.15233654267E+02
 0.15074183180E+02 0.14678042941E+02 0.14079605540E+02 0.13458293656E+02 0.13060289215E+02
 0.13060299634E+02 0.13458317216E+02 0.14079631118E+02 0.14678068602E+02 0.15074206713E+02
 0.15233665844E+02 0.15188520115E+02 0.14993716305E+02 0.14707973574E+02 0.14364089295E+02
 0.13964522246E+02 0.13500649227E+02 0.12982635423E+02 0.12461260762E+02 0.12024474630E+02
 0.11770502697E+02 0.11770474135E+02 0.12024421263E+02 0.12461242289E+02 0.12982670386E+02
 0.11744959774E+02 0.12286657193E+02 0.12834122161E+02 0.13371021638E+02 0.13857826369E+02
 0.14228753612E+02 0.14409610657E+02 0.14341264163E+02 0.13988855597E+02 0.13458293656E+02
 0.12981436787E+02 0.12790263767E+02 0.12981452514E+02 0.13458320026E+02 0.13988886163E+02
 0.14341291393E+02 0.14409625491E+02 0.14228752171E+02 0.13857817439E+02 0.13371019801E+02
 0.12834130490E+02 0.12286662394E+02 0.11744946946E+02 0.11218959794E+02 0.10730505201E+02
 0.10321107751E+02 0.10044283241E+02 0.99459643044E+01 0.10044300799E+02 0.10321139956E+02
 0.10730544001E+02 0.11218991606E+02 0.10189357980E+02 0.10842249770E+02 0.11538181355E+02
 0.12238917305E+02 0.12881739039E+02 0.13387133041E+02 0.13681962179E+02 0.13697020518E+02
 0.13437817811E+02 0.13060289215E+02 0.12790263767E+02 0.12790272019E+02 0.13060311025E+02
 0.13437846345E+02 0.13697049351E+02 0.13681987061E+02 0.13387148054E+02 0.12881733954E+02
 0.12238887627E+02 0.11538144239E+02 0.10842239738E+02 0.10189391888E+02 0.95995734534E+01
 0.90867736696E+01 0.86687415967E+01 0.83690814933E+01 0.82116831947E+01 0.82117367248E+01
 0.83691965827E+01 0.86688272297E+01 0.90867799419E+01 0.95995282246E+01 0.89072301704E+01
 0.96741578293E+01 0.10502063178E+02 0.11339474672E+02 0.12114162184E+02 0.12746645730E+02
 0.13167504548E+02 0.13313112385E+02 0.13226160835E+02 0.13060299634E+02 0.12981452514E+02
 0.13060311025E+02 0.13226187627E+02 0.13313150735E+02 0.13167540306E+02 0.12746666967E+02
 0.12114167697E+02 0.11339468876E+02 0.10502050270E+02 0.96741439660E+01 0.89072238170E+01
 0.82310731830E+01 0.76606075342E+01 0.72042777503E+01 0.68695994619E+01 0.66644345744E+01
 0.65952153338E+01 0.66644500458E+01 0.68696172852E+01 0.72042847920E+01 0.76606036138E+01
 0.82310697899E+01 0.79201596735E+01 0.87947105538E+01 0.97426807335E+01 0.10707798041E+02
 0.11617381367E+02 0.12397125663E+02 0.12979956834E+02 0.13313113762E+02 0.13437829894E+02
 0.13458317216E+02 0.13458320026E+02 0.13437846345E+02 0.13313150735E+02 0.12979999309E+02
 0.12397151868E+02 0.11617392780E+02 0.10707815888E+02 0.97427113405E+01 0.87947297813E+01
 0.79201402759E+01 0.71539860993E+01 0.65130710683E+01 0.60024739986E+01 0.56217806138E+01
 0.53691503821E+01 0.52431413914E+01 0.52431039566E+01 0.53690662543E+01 0.56217106215E+01
 0.60024622493E+01 0.65131129281E+01 0.71540379241E+01 0.72251171324E+01 0.82067461339E+01
 0.92772483302E+01 0.10380271990E+02 0.11444775781E+02 0.12397125694E+02 0.13167513054E+02
 0.13697026277E+02 0.13988873132E+02 0.14079631118E+02 0.13988886163E+02 0.13697049351E+02
 0.13167540306E+02 0.12397151868E+02 0.11444799240E+02 0.10380291986E+02 0.92772623002E+01
 0.82067536766E+01 0.72251234822E+01 0.63684317476E+01 0.56534287087E+01 0.50827016689E+01
 0.46509214791E+01 0.43500532758E+01 0.41727664029E+01 0.41142173453E+01 0.41727476048E+01
 0.43500300604E+01 0.46509043190E+01 0.50826887137E+01 0.56534161622E+01 0.63684216382E+01
 0.68128557777E+01 0.79120389052E+01 0.91202171091E+01 0.10380278170E+02 0.11617366576E+02
 0.12746643970E+02 0.13681969306E+02 0.14341277567E+02 0.14678062846E+02 0.14678068602E+02
 0.14341291393E+02 0.13681987061E+02 0.12746666967E+02 0.11617392780E+02 0.10380291986E+02
 0.91202033022E+01 0.79120112119E+01 0.68128558287E+01 0.58584528035E+01 0.50640726391E+01
 0.44292170559E+01 0.39439770184E+01 0.35950174376E+01 0.33699321595E+01 0.32597061719E+01
 0.32597166950E+01 0.33699633912E+01 0.35950550413E+01 0.39439848664E+01 0.44291702973E+01
 0.50639953185E+01 0.58584001813E+01 0.66762642427E+01 0.79120179198E+01 0.92772609397E+01
 0.10707803497E+02 0.12114147130E+02 0.13387128381E+02 0.14409614539E+02 0.15074203818E+02
 0.15304591267E+02 0.15074206713E+02 0.14409625491E+02 0.13387148054E+02 0.12114167697E+02
 0.10707815888E+02 0.92772623002E+01 0.79120112119E+01 0.66762549855E+01 0.56079822362E+01
 0.47217192258E+01 0.40139775701E+01 0.34701908608E+01 0.30715608168E+01 0.28003731276E+01
 0.26431009706E+01 0.25915744338E+01 0.26430960290E+01 0.28003633084E+01 0.30715462841E+01
 0.34701739451E+01 0.40139641263E+01 0.47217149483E+01 0.56079873656E+01 0.68128457429E+01
 0.82067196990E+01 0.97426873094E+01 0.11339462445E+02 0.12881734285E+02 0.14228751296E+02
 0.15233664101E+02 0.15772092875E+02 0.15772093590E+02 0.15233665844E+02 0.14228752171E+02
 0.12881733954E+02 0.11339468876E+02 0.97427113405E+01 0.82067536766E+01 0.68128558287E+01
 0.56079822362E+01 0.46095598081E+01 0.38128342141E+01 0.31992473303E+01 0.27445192692E+01
 0.24251504384E+01 0.22224496243E+01 0.21240883782E+01 0.21240864728E+01 0.22224317549E+01
 0.24251053445E+01 0.27444722858E+01 0.31992459993E+01 0.38128937351E+01 0.46096392264E+01
 0.56080251261E+01 0.72251203558E+01 0.87947253046E+01 0.10502052467E+02 0.12238897500E+02
 0.13857829455E+02 0.15188528525E+02 0.16067503366E+02 0.16375172415E+02 0.16067499883E+02
 0.15188520115E+02 0.13857817439E+02 0.12238887627E+02 0.10502050270E+02 0.87947297813E+01
 0.72251234822E+01 0.58584528035E+01 0.47217192258E+01 0.38128342141E+01 0.31111737797E+01
 0.25876180063E+01 0.22126870362E+01 0.19618540178E+01 0.18178785108E+01 0.17709353800E+01
 0.18178822774E+01 0.19618612606E+01 0.22126987027E+01 0.25876361270E+01 0.31111982988E+01
 0.38128601547E+01 0.47217383732E+01 0.58584596899E+01 0.79201762140E+01 0.96741894111E+01
 0.11538166840E+02 0.13371020188E+02 0.14993714282E+02 0.16215684468E+02 0.16873979620E+02
 0.16873975698E+02 0.16215679544E+02 0.14993716305E+02 0.13371019801E+02 0.11538144239E+02
 0.96741439660E+01 0.79201402759E+01 0.63684317476E+01 0.50640726391E+01 0.40139775701E+01
 0.31992473303E+01 0.25876180063E+01 0.21439209926E+01 0.18372813592E+01 0.16447171328E+01
 0.15518048219E+01 0.15518025009E+01 0.16447249755E+01 0.18373223984E+01 0.21439884222E+01
 0.25876688044E+01 0.31992411936E+01 0.40139205518E+01 0.50640151990E+01 0.63684206272E+01
 0.89072289684E+01 0.10842242160E+02 0.12834125009E+02 0.14707963751E+02 0.16258613796E+02
 0.17287405409E+02 0.17648302391E+02 0.17287408879E+02 0.16258621659E+02 0.14707973574E+02
 0.12834130490E+02 0.10842239738E+02 0.89072238170E+01 0.71539860993E+01 0.56534287087E+01
 0.44292170559E+01 0.34701908608E+01 0.27445192692E+01 0.22126870362E+01 0.18372813592E+01
 0.15886592434E+01 0.14468040953E+01 0.14006764788E+01 0.14468148773E+01 0.15886761258E+01
 0.18372975071E+01 0.22126957215E+01 0.27445155836E+01 0.34701748079E+01 0.44291960649E+01
 0.56534140597E+01 0.71539837506E+01 0.10189327128E+02 0.12286616460E+02 0.14364078733E+02
 0.16215684634E+02 0.17617709237E+02 0.18375754934E+02 0.18375759981E+02 0.17617714822E+02
 0.16215683152E+02 0.14364089295E+02 0.12286662394E+02 0.10189391888E+02 0.82310731830E+01
 0.65130710683E+01 0.50827016689E+01 0.39439770184E+01 0.30715608168E+01 0.24251504384E+01
 0.19618540178E+01 0.16447171328E+01 0.14468040953E+01 0.13516216411E+01 0.13516290775E+01
 0.14468193252E+01 0.16447200985E+01 0.19618252782E+01 0.24250981489E+01 0.30715264595E+01
 0.39439952403E+01 0.50827541173E+01 0.65130986742E+01 0.82310411340E+01 0.11744932812E+02
 0.13964517586E+02 0.16067501599E+02 0.17821320468E+02 0.18992520824E+02 0.19404898882E+02
 0.18992520724E+02 0.17821318625E+02 0.16067499929E+02 0.13964522246E+02 0.11744946946E+02
 0.95995734534E+01 0.76606075342E+01 0.60024739986E+01 0.46509214791E+01 0.35950174376E+01
 0.28003731276E+01 0.22224496243E+01 0.18178785108E+01 0.15518048219E+01 0.14006764788E+01
 0.13516290775E+01 0.14006737970E+01 0.15518007449E+01 0.18178721399E+01 0.22224384942E+01
 0.28003584107E+01 0.35950046216E+01 0.46509133241E+01 0.60024659126E+01 0.76605935222E+01
 0.95995551653E+01 0.13500709961E+02 0.15772112025E+02 0.17814632208E+02 0.19374659378E+02
 0.20221391981E+02 0.20221387299E+02 0.19374654705E+02 0.17814631383E+02 0.15772090066E+02
 0.13500649227E+02 0.11218959794E+02 0.90867736696E+01 0.72042777503E+01 0.56217806138E+01
 0.43500532758E+01 0.33699321595E+01 0.26431009706E+01 0.21240883782E+01 0.17709353800E+01
 0.15518025009E+01 0.14468148773E+01 0.14468193252E+01 0.15518007449E+01 0.17709145671E+01
 0.21240750864E+01 0.26431266042E+01 0.33699720624E+01 0.43500440077E+01 0.56217067413E+01
 0.72042045609E+01 0.90867714984E+01 0.11219021403E+02 0.15304618943E+02 0.17492196145E+02
 0.19288080359E+02 0.20468834500E+02 0.20880830165E+02 0.20468829149E+02 0.19288067811E+02
 0.17492175190E+02 0.15304591326E+02 0.12982635423E+02 0.10730505201E+02 0.86687415967E+01
 0.68695994619E+01 0.53691503821E+01 0.41727664029E+01 0.32597061719E+01 0.25915744338E+01
 0.21240864728E+01 0.18178822774E+01 0.16447249755E+01 0.15886761258E+01 0.16447200985E+01
 0.18178721399E+01 0.21240750864E+01 0.25915688393E+01 0.32597083149E+01 0.41727709546E+01
 0.53691530263E+01 0.68696036019E+01 0.86687542043E+01 0.10730528360E+02 0.12982664388E+02
 0.16748965924E+02 0.18470834987E+02 0.19698409621E+02 0.20336594263E+02 0.20336594610E+02
 0.19698397594E+02 0.18470805326E+02 0.16748953347E+02 0.14678066476E+02 0.12461260762E+02
 0.10321107751E+02 0.83690814933E+01 0.66644345744E+01 0.52431413914E+01 0.41142173453E+01
 0.32597166950E+01 0.26430960290E+01 0.22224317549E+01 0.19618612606E+01 0.18373223984E+01
 0.18372975071E+01 0.19618252782E+01 0.22224384942E+01 0.26431266042E+01 0.32597083149E+01
 0.41141689277E+01 0.52431300981E+01 0.66645080844E+01 0.83691831797E+01 0.10321147993E+02
 0.12461231422E+02 0.14678036359E+02 0.16949769509E+02 0.17782903635E+02 0.18237909549E+02
 0.18380612856E+02 0.18237877786E+02 0.17782858637E+02 0.16949734824E+02 0.15679588474E+02
 0.13988873156E+02 0.12024474630E+02 0.10044283241E+02 0.82116831947E+01 0.65952153338E+01
 0.52431039566E+01 0.41727476048E+01 0.33699633912E+01 0.28003633084E+01 0.24251053445E+01
 0.22126987027E+01 0.21439884222E+01 0.22126957215E+01 0.24250981489E+01 0.28003584107E+01
 0.33699720624E+01 0.41727709546E+01 0.52431300981E+01 0.65952336579E+01 0.82116930116E+01
 0.10044286972E+02 0.12024473203E+02 0.13988872596E+02 0.15679601936E+02 0.15098393146E+02
 0.14813649860E+02 0.14574686649E+02 0.14574648833E+02 0.14813571184E+02 0.15098328335E+02
 0.15121995840E+02 0.14603906548E+02 0.13437826305E+02 0.11770502697E+02 0.99459643044E+01
 0.82117367248E+01 0.66644500458E+01 0.53690662543E+01 0.43500300604E+01 0.35950550413E+01
 0.30715462841E+01 0.27444722858E+01 0.25876361270E+01 0.25876688044E+01 0.27445155836E+01
 0.30715264595E+01 0.35950046216E+01 0.43500440077E+01 0.53691530263E+01 0.66645080844E+01
 0.82116930116E+01 0.99458689518E+01 0.11770451991E+02 0.13437843628E+02 0.14603948221E+02
 0.15122039885E+02 0.10934885171E+02 0.96662252234E+01 0.91773008724E+01 0.96662130817E+01
 0.10934851256E+02 0.12465339347E+02 0.13625184433E+02 0.13926376506E+02 0.13226160793E+02
 0.11770474135E+02 0.10044300799E+02 0.83691965827E+01 0.68696172852E+01 0.56217106215E+01
 0.46509043190E+01 0.39439848664E+01 0.34701739451E+01 0.31992459993E+01 0.31111982988E+01
 0.31992411936E+01 0.34701748079E+01 0.39439952403E+01 0.46509133241E+01 0.56217067413E+01
 0.68696036019E+01 0.83691831797E+01 0.10044286972E+02 0.11770451991E+02 0.13226137316E+02
 0.13926375660E+02 0.13625217964E+02 0.12465387645E+02 0.50421361192E+01 0.33431616857E+01
 0.33431970418E+01 0.50421946004E+01 0.78529607097E+01 0.10831885120E+02 0.13046859553E+02
 0.13926382475E+02 0.13437821316E+02 0.12024421263E+02 0.10321139956E+02 0.86688272297E+01
 0.72042847920E+01 0.60024622493E+01 0.50826887137E+01 0.44291702973E+01 0.40139641263E+01
 0.38128937351E+01 0.38128601547E+01 0.40139205518E+01 0.44291960649E+01 0.50827541173E+01
 0.60024659126E+01 0.72042045609E+01 0.86687542043E+01 0.10321147993E+02 0.12024473203E+02
 0.13437843628E+02 0.13926375660E+02 0.13046872724E+02 0.10831914402E+02 0.78529496993E+01
 -.11809005578E+01 -.24584912951E+01 -.11809283046E+01 0.22295342828E+01 0.66777751633E+01
 0.10831907572E+02 0.13625184500E+02 0.14603906420E+02 0.13988855493E+02 0.12461242289E+02
 0.10730544001E+02 0.90867799419E+01 0.76606036138E+01 0.65131129281E+01 0.56534161622E+01
 0.50639953185E+01 0.47217149483E+01 0.46096392264E+01 0.47217383732E+01 0.50640151990E+01
 0.56534140597E+01 0.65130986742E+01 0.76605935222E+01 0.90867714984E+01 0.10730528360E+02
 0.12461231422E+02 0.13988872596E+02 0.14603948221E+02 0.13625217964E+02 0.10831914402E+02
 0.66777771267E+01 0.22295563915E+01 -.59386338135E+01 -.59387061163E+01 -.28875764117E+01
 0.22294817713E+01 0.78529507631E+01 0.12465379735E+02 0.15121987788E+02 0.15679559460E+02
 0.14678039239E+02 0.12982670386E+02 0.11218991606E+02 0.95995282246E+01 0.82310697899E+01
 0.71540379241E+01 0.63684216382E+01 0.58584001813E+01 0.56079873656E+01 0.56080251261E+01
 0.58584596899E+01 0.63684206272E+01 0.71539837506E+01 0.82310411340E+01 0.95995551653E+01
 0.11219021403E+02 0.12982664388E+02 0.14678036359E+02 0.15679601936E+02 0.15122039885E+02
 0.12465387645E+02 0.78529496993E+01 0.22295563915E+01 -.28874388679E+01 -.59386318706E+01
 -.24583513381E+01 0.33432276740E+01 0.96661726116E+01 0.14813550799E+02 0.17782831454E+02
 0.18470786274E+02 0.17492143019E+02 0.15772073897E+02 0.13964529505E+02 0.12286655914E+02
 0.10842249976E+02 0.96741590778E+01 0.87947114034E+01 0.82067466386E+01 0.79120400546E+01
 0.79120192511E+01 0.82067199550E+01 0.87947248667E+01 0.96741896069E+01 0.10842242740E+02
 0.12286616204E+02 0.13964516806E+02 0.15772112005E+02 0.17492196710E+02 0.18470835092E+02
 0.17782903748E+02 0.14813651270E+02 0.96662275527E+01 0.33431635321E+01 -.24584898588E+01
 -.59387041309E+01 -.24583513381E+01 0.23418172352E+01 0.85469882872E+01 0.14317686236E+02
 0.18283006892E+02 0.19938184222E+02 0.19615783648E+02 0.18149291645E+02 0.16375160367E+02
 0.14641400726E+02 0.13082347600E+02 0.11760388499E+02 0.10702220248E+02 0.99256856730E+01
 0.94492159171E+01 0.92883568451E+01 0.94492238922E+01 0.99256877325E+01 0.10702212405E+02
 0.11760386226E+02 0.13082362151E+02 0.14641417161E+02 0.16375158939E+02 0.18149290078E+02
 0.19615831916E+02 0.19938299371E+02 0.18283127232E+02 0.14317715015E+02 0.85468866932E+01
 0.23416460330E+01 -.24584787360E+01 -.42673789997E+01 0.33432276740E+01 0.85469882872E+01
 0.14110804620E+02 0.18494955442E+02 0.20856385206E+02 0.21196788511E+02 0.20145379382E+02
 0.18542245801E+02 0.16873957834E+02 0.15304473407E+02 0.13910227909E+02 0.12726364919E+02
 0.11782577353E+02 0.11117567426E+02 0.10771954871E+02 0.10771964087E+02 0.11117581235E+02
 0.11782577156E+02 0.12726358854E+02 0.13910239019E+02 0.15304502144E+02 0.16873979718E+02
 0.18542250458E+02 0.20145389241E+02 0.21196823610E+02 0.20856424847E+02 0.18494956355E+02
 0.14110753038E+02 0.85469150807E+01 0.33431726892E+01 0.18827369499E+00 0.18829269275E+00
 0.96661726116E+01 0.14317686236E+02 0.18494955442E+02 0.21168832509E+02 0.22041479113E+02
 0.21479661553E+02 0.20196379132E+02 0.18735175500E+02 0.17287380230E+02 0.15936756583E+02
 0.14718334185E+02 0.13664402912E+02 0.12829877528E+02 0.12286828678E+02 0.12097612585E+02
 0.12286849359E+02 0.12829894045E+02 0.13664403632E+02 0.14718334857E+02 0.15936771494E+02
 0.17287402143E+02 0.18735193994E+02 0.20196395825E+02 0.21479670268E+02 0.22041452602E+02
 0.21168758960E+02 0.18494880050E+02 0.14317680714E+02 0.96662498074E+01 0.59991455260E+01
 0.46051996861E+01 0.59990625667E+01 0.14813550799E+02 0.18283006892E+02 0.20856385206E+02
 0.22041479113E+02 0.21949106827E+02 0.21095825068E+02 0.19977204717E+02 0.18790097193E+02
 0.17617690616E+02 0.16486156635E+02 0.15417157352E+02 0.14468467122E+02 0.13739112347E+02
 0.13337389953E+02 0.13337412785E+02 0.13739153436E+02 0.14468484484E+02 0.15417151777E+02
 0.16486160124E+02 0.17617713380E+02 0.18790118253E+02 0.19977209099E+02 0.21095818652E+02
 0.21949092117E+02 0.22041446041E+02 0.20856338305E+02 0.18282978990E+02 0.14813569078E+02
 0.11467084734E+02 0.94065112411E+01 0.94064866952E+01 0.11467038214E+02 0.17782831454E+02
 0.19938184222E+02 0.21196788511E+02 0.21479661553E+02 0.21095825068E+02 0.20414297026E+02
 0.19602993831E+02 0.18735177466E+02 0.17821308531E+02 0.16859774983E+02 0.15890149602E+02
 0.15007211491E+02 0.14368349488E+02 0.14133135580E+02 0.14368399433E+02 0.15007265086E+02
 0.15890171634E+02 0.16859775353E+02 0.17821314687E+02 0.18735195555E+02 0.19603008448E+02
 0.20414295595E+02 0.21095812101E+02 0.21479653750E+02 0.21196797192E+02 0.19938197525E+02
 0.17782820776E+02 0.15274020348E+02 0.13249570428E+02 0.12472143142E+02 0.13249613612E+02
 0.15274063926E+02 0.18470786274E+02 0.19615783648E+02 0.20145379382E+02 0.20196379132E+02
 0.19977204717E+02 0.19602993831E+02 0.19127641333E+02 0.18542243200E+02 0.17814618279E+02
 0.16938019825E+02 0.15966277609E+02 0.15089051245E+02 0.14560818884E+02 0.14560855779E+02
 0.15089127934E+02 0.15966334189E+02 0.16938036199E+02 0.17814618204E+02 0.18542250035E+02
 0.19127656281E+02 0.19603009996E+02 0.19977218120E+02 0.20196386227E+02 0.20145379903E+02
 0.19615785577E+02 0.18470796996E+02 0.16881099513E+02 0.15313220435E+02 0.14335480368E+02
 0.14335476830E+02 0.15313209226E+02 0.16881083938E+02 0.17492143019E+02 0.18149291645E+02
 0.18542245801E+02 0.18735175500E+02 0.18790097193E+02 0.18735177466E+02 0.18542243200E+02
 0.18149284912E+02 0.17492139438E+02 0.16552834963E+02 0.15503163206E+02 0.14663069330E+02
 0.14340770122E+02 0.14663117158E+02 0.15503223067E+02 0.16552875274E+02 0.17492157485E+02
 0.18149293662E+02 0.18542253217E+02 0.18735195100E+02 0.18790123031E+02 0.18735198335E+02
 0.18542252837E+02 0.18149289632E+02 0.17492156674E+02 0.16552877907E+02 0.15503222668E+02
 0.14663114034E+02 0.14340771261E+02 0.14663074769E+02 0.15503166038E+02 0.16552834947E+02
 0.15772073897E+02 0.16375160367E+02 0.16873957834E+02 0.17287380230E+02 0.17617690616E+02
 0.17821308531E+02 0.17814618279E+02 0.17492139438E+02 0.16748906963E+02 0.15679561522E+02
 0.14603905101E+02 0.13926378954E+02 0.13926377657E+02 0.14603910958E+02 0.15679588906E+02
 0.16748950787E+02 0.17492176483E+02 0.17814635288E+02 0.17821318218E+02 0.17617711406E+02
 0.17287409497E+02 0.16873979133E+02 0.16375171666E+02 0.15772089202E+02 0.15074204344E+02
 0.14341281264E+02 0.13697026317E+02 0.13313111429E+02 0.13313114616E+02 0.13697025940E+02
 0.14341265559E+02 0.15074181503E+02 0.13964529505E+02 0.14641400726E+02 0.15304473407E+02
 0.15936756583E+02 0.16486156635E+02 0.16859774983E+02 0.16938019825E+02 0.16552834963E+02
 0.15679561522E+02 0.14559311664E+02 0.13614697668E+02 0.13245336682E+02 0.13614664131E+02
 0.14559285046E+02 0.15679578942E+02 0.16552890276E+02 0.16938071563E+02 0.16859793098E+02
 0.16486153698E+02 0.15936767441E+02 0.15304509112E+02 0.14641433570E+02 0.13964526889E+02
 0.13282873926E+02 0.12626938446E+02 0.12061214730E+02 0.11671314919E+02 0.11531495147E+02
 0.11671312730E+02 0.12061229297E+02 0.12626976244E+02 0.13282910337E+02 0.12286655914E+02
 0.13082347600E+02 0.13910227909E+02 0.14718334185E+02 0.15417157352E+02 0.15890149602E+02
 0.15966277609E+02 0.15503163206E+02 0.14603905101E+02 0.13614697668E+02 0.12970413844E+02
 0.12970372812E+02 0.13614619844E+02 0.14603873431E+02 0.15503206233E+02 0.15966348194E+02
 0.15890187687E+02 0.15417151560E+02 0.14718317211E+02 0.13910229372E+02 0.13082364531E+02
 0.12286663824E+02 0.11548338960E+02 0.10886526863E+02 0.10330404558E+02 0.99216874321E+01
 0.97035140583E+01 0.97035241724E+01 0.99217172400E+01 0.10330447931E+02 0.10886567349E+02
 0.11548357549E+02 0.10842249976E+02 0.11760388499E+02 0.12726364919E+02 0.13664402912E+02
 0.14468467122E+02 0.15007211491E+02 0.15089051245E+02 0.14663069330E+02 0.13926378954E+02
 0.13245336682E+02 0.12970372812E+02 0.13245236937E+02 0.13926290890E+02 0.14663077724E+02
 0.15089126134E+02 0.15007270663E+02 0.14468477077E+02 0.13664385227E+02 0.12726340255E+02
 0.11760362408E+02 0.10842239200E+02 0.10015443906E+02 0.93023815448E+01 0.87184282092E+01
 0.82804930689E+01 0.80073580194E+01 0.79143667544E+01 0.80074331494E+01 0.82805667421E+01
 0.87184393229E+01 0.93023474277E+01 0.10015420898E+02 0.96741590778E+01 0.10702220248E+02
 0.11782577353E+02 0.12829877528E+02 0.13739112347E+02 0.14368349488E+02 0.14560818884E+02
 0.14340770122E+02 0.13926377657E+02 0.13614664131E+02 0.13614619844E+02 0.13926290890E+02
 0.14340725905E+02 0.14560850190E+02 0.14368417054E+02 0.13739161373E+02 0.12829888772E+02
 0.11782564853E+02 0.10702204020E+02 0.96741500796E+01 0.87538499253E+01 0.79701498632E+01
 0.73351985654E+01 0.68540743280E+01 0.65303384914E+01 0.63673587359E+01 0.63673607817E+01
 0.65303434228E+01 0.68540785625E+01 0.73351986269E+01 0.79701470413E+01 0.87538504029E+01
 0.87947114034E+01 0.99256856730E+01 0.11117567426E+02 0.12286828678E+02 0.13337389953E+02
 0.14133135580E+02 0.14560855779E+02 0.14663117158E+02 0.14603910958E+02 0.14559285046E+02
 0.14603873431E+02 0.14663077724E+02 0.14560850190E+02 0.14133168303E+02 0.13337437251E+02
 0.12286866453E+02 0.11117591782E+02 0.99257063229E+01 0.87947276181E+01 0.77835839260E+01
 0.69245667974E+01 0.62292144989E+01 0.56969543143E+01 0.53224742414E+01 0.51002408920E+01
 0.50265492972E+01 0.51001657209E+01 0.53223988221E+01 0.56969423469E+01 0.62292560305E+01
 0.69246073962E+01 0.77835913182E+01 0.82067466386E+01 0.94492159171E+01 0.10771954871E+02
 0.12097612585E+02 0.13337412785E+02 0.14368399433E+02 0.15089127934E+02 0.15503223067E+02
 0.15679588906E+02 0.15679578942E+02 0.15503206233E+02 0.15089126134E+02 0.14368417054E+02
 0.13337437251E+02 0.12097634278E+02 0.10771974337E+02 0.94492341579E+01 0.82067602496E+01
 0.71009249516E+01 0.61632760401E+01 0.54036072306E+01 0.48171433568E+01 0.43923682906E+01
 0.41170695123E+01 0.39818835784E+01 0.39818778963E+01 0.41170541659E+01 0.43923477113E+01
 0.48171234237E+01 0.54035929977E+01 0.61632677308E+01 0.71009167987E+01 0.79120400546E+01
 0.92883568451E+01 0.10771964087E+02 0.12286849359E+02 0.13739153436E+02 0.15007265086E+02
 0.15966334189E+02 0.16552875274E+02 0.16748950787E+02 0.16552890276E+02 0.15966348194E+02
 0.15007270663E+02 0.13739161373E+02 0.12286866453E+02 0.10771974337E+02 0.92883413448E+01
 0.79120121287E+01 0.66962183791E+01 0.56695779027E+01 0.48386418960E+01 0.41941454807E+01
 0.37188191961E+01 0.33943230532E+01 0.32058071038E+01 0.31440155178E+01 0.32058402886E+01
 0.33943626085E+01 0.37188256123E+01 0.41940984477E+01 0.48385660270E+01 0.56695253368E+01
 0.66962172363E+01 0.79120192511E+01 0.94492238922E+01 0.11117581235E+02 0.12829894045E+02
 0.14468484484E+02 0.15890171634E+02 0.16938036199E+02 0.17492157485E+02 0.17492176483E+02
 0.16938071563E+02 0.15890187687E+02 0.14468477077E+02 0.12829888772E+02 0.11117591782E+02
 0.94492341579E+01 0.79120121287E+01 0.65621510353E+01 0.54272422029E+01 0.45107728598E+01
 0.37988869412E+01 0.32685178800E+01 0.28950570707E+01 0.26578123699E+01 0.25426665216E+01
 0.25426598740E+01 0.26578005383E+01 0.28950505423E+01 0.32685123971E+01 0.37988738769E+01
 0.45107594290E+01 0.54272441208E+01 0.65621661202E+01 0.82067199550E+01 0.99256877325E+01
 0.11782577156E+02 0.13664403632E+02 0.15417151777E+02 0.16859775353E+02 0.17814618204E+02
 0.18149293662E+02 0.17814635288E+02 0.16859793098E+02 0.15417151560E+02 0.13664385227E+02
 0.11782564853E+02 0.99257063229E+01 0.82067602496E+01 0.66962183791E+01 0.54272422029E+01
 0.44033933026E+01 0.36075330493E+01 0.30112270658E+01 0.25834901756E+01 0.22973319182E+01
 0.21331929545E+01 0.20797009168E+01 0.21331764516E+01 0.22972972984E+01 0.25834563793E+01
 0.30112312240E+01 0.36075899827E+01 0.44034679764E+01 0.54272796184E+01 0.66962001870E+01
 0.87947248667E+01 0.10702212405E+02 0.12726358854E+02 0.14718334857E+02 0.16486160124E+02
 0.17821314687E+02 0.18542250035E+02 0.18542253217E+02 0.17821318218E+02 0.16486153698E+02
 0.14718317211E+02 0.12726340255E+02 0.10702204020E+02 0.87947276181E+01 0.71009249516E+01
 0.56695779027E+01 0.45107728598E+01 0.36075330493E+01 0.29276043528E+01 0.24340353075E+01
 0.20932204384E+01 0.18795050536E+01 0.17765168017E+01 0.17765206775E+01 0.18795151256E+01
 0.20932346043E+01 0.24340540675E+01 0.29276284691E+01 0.36075585467E+01 0.45107912849E+01