   2   2   1   0
  0.2041193E+02  0.3864942E-09  0.3864942E-09  0.3864942E-09  0.5000000E-15
  1.000000000000000E-004
  CAR 
 fcc Si                                  
     16.68386892     -7.28326532  301      5.96935601      1.00000000
     -7.283  0.0000E+00  0.0000E+00
     -7.203  0.0000E+00  0.0000E+00
     -7.123  0.0000E+00  0.0000E+00
     -7.044  0.0000E+00  0.0000E+00
     -6.964  0.0000E+00  0.0000E+00
     -6.884  0.0000E+00  0.0000E+00
     -6.804  0.0000E+00  0.0000E+00
     -6.724  0.6118E-13  0.4888E-14
     -6.644  0.1814E-09  0.1450E-10
     -6.564  0.1551E-06  0.1240E-07
     -6.484  0.3877E-04  0.3110E-05
     -6.404  0.2905E-02  0.2352E-03
     -6.325  0.6771E-01  0.5644E-02
     -6.245  0.5174E+00  0.4698E-01
     -6.165  0.1388E+01  0.1578E+00
     -6.085  0.1492E+01  0.2770E+00
     -6.005  0.1038E+01  0.3599E+00
     -5.925  0.8184E+00  0.4253E+00
     -5.845  0.5690E+00  0.4708E+00
     -5.765  0.4738E+00  0.5086E+00
     -5.685  0.5705E+00  0.5542E+00
     -5.606  0.5950E+00  0.6017E+00
     -5.526  0.4200E+00  0.6353E+00
     -5.446  0.2178E+00  0.6527E+00
     -5.366  0.2869E+00  0.6756E+00
     -5.286  0.5578E+00  0.7202E+00
     -5.206  0.6250E+00  0.7701E+00
     -5.126  0.3139E+00  0.7952E+00
     -5.046  0.6506E-01  0.8004E+00
     -4.966  0.9768E-01  0.8082E+00
     -4.887  0.3918E+00  0.8395E+00
     -4.807  0.6430E+00  0.8908E+00
     -4.727  0.5055E+00  0.9312E+00
     -4.647  0.2009E+00  0.9473E+00
     -4.567  0.4871E-01  0.9512E+00
     -4.487  0.1219E+00  0.9609E+00
     -4.407  0.3255E+00  0.9869E+00
     -4.327  0.4243E+00  0.1021E+01
     -4.247  0.3960E+00  0.1052E+01
     -4.168  0.3920E+00  0.1084E+01
     -4.088  0.4053E+00  0.1116E+01
     -4.008  0.3542E+00  0.1144E+01
     -3.928  0.3112E+00  0.1169E+01
     -3.848  0.2718E+00  0.1191E+01
     -3.768  0.1496E+00  0.1203E+01
     -3.688  0.2368E+00  0.1222E+01
     -3.608  0.4230E+00  0.1256E+01
     -3.528  0.3775E+00  0.1286E+01
     -3.449  0.1530E+00  0.1298E+01
     -3.369  0.2309E-01  0.1300E+01
     -3.289  0.1140E-02  0.1300E+01
     -3.209  0.7109E-03  0.1300E+01
     -3.129  0.1736E-01  0.1301E+01
     -3.049  0.1425E+00  0.1313E+01
     -2.969  0.4143E+00  0.1346E+01
     -2.889  0.4557E+00  0.1382E+01
     -2.809  0.1910E+00  0.1398E+01
     -2.730  0.3229E-01  0.1400E+01
     -2.650  0.6217E-01  0.1405E+01
     -2.570  0.3317E+00  0.1432E+01
     -2.490  0.6383E+00  0.1483E+01
     -2.410  0.6250E+00  0.1533E+01
     -2.330  0.6328E+00  0.1583E+01
     -2.250  0.9560E+00  0.1659E+01
     -2.170  0.1985E+01  0.1818E+01
     -2.090  0.3013E+01  0.2059E+01
     -2.010  0.2244E+01  0.2238E+01
     -1.931  0.1075E+01  0.2324E+01
     -1.851  0.6648E+00  0.2377E+01
     -1.771  0.5458E+00  0.2421E+01
     -1.691  0.4897E+00  0.2460E+01
     -1.611  0.5164E+00  0.2501E+01
     -1.531  0.6239E+00  0.2551E+01
     -1.451  0.4714E+00  0.2589E+01
     -1.371  0.1757E+00  0.2603E+01
     -1.291  0.2818E+00  0.2625E+01
     -1.212  0.5563E+00  0.2670E+01
     -1.132  0.4972E+00  0.2709E+01
     -1.052  0.4808E+00  0.2748E+01
     -0.972  0.4373E+00  0.2783E+01
     -0.892  0.1865E+00  0.2797E+01
     -0.812  0.2984E-01  0.2800E+01
     -0.732  0.2059E-02  0.2800E+01
     -0.652  0.1275E-01  0.2801E+01
     -0.572  0.1111E+00  0.2810E+01
     -0.493  0.3518E+00  0.2838E+01
     -0.413  0.5064E+00  0.2878E+01
     -0.333  0.4672E+00  0.2916E+01
     -0.253  0.3123E+00  0.2941E+01
     -0.173  0.1030E+00  0.2949E+01
     -0.093  0.1209E-01  0.2950E+01
     -0.013  0.1621E-02  0.2950E+01
      0.067  0.2319E-01  0.2952E+01
      0.147  0.1412E+00  0.2963E+01
      0.226  0.2854E+00  0.2986E+01
      0.306  0.2850E+00  0.3009E+01
      0.386  0.2946E+00  0.3032E+01
      0.466  0.1842E+00  0.3047E+01
      0.546  0.8749E-01  0.3054E+01
      0.626  0.2023E+00  0.3070E+01
      0.706  0.2556E+00  0.3091E+01
      0.786  0.1041E+00  0.3099E+01
      0.866  0.2589E-01  0.3101E+01
      0.945  0.1023E+00  0.3109E+01
      1.025  0.2548E+00  0.3130E+01
      1.105  0.2108E+00  0.3146E+01
      1.185  0.1492E+00  0.3158E+01
      1.265  0.3841E+00  0.3189E+01
      1.345  0.6425E+00  0.3240E+01
      1.425  0.7867E+00  0.3303E+01
      1.505  0.9021E+00  0.3375E+01
      1.585  0.8644E+00  0.3444E+01
      1.664  0.7075E+00  0.3501E+01
      1.744  0.4738E+00  0.3539E+01
      1.824  0.3351E+00  0.3565E+01
      1.904  0.5775E+00  0.3612E+01
      1.984  0.7553E+00  0.3672E+01
      2.064  0.5694E+00  0.3717E+01
      2.144  0.3676E+00  0.3747E+01
      2.224  0.3908E+00  0.3778E+01
      2.304  0.5293E+00  0.3820E+01
      2.383  0.3507E+00  0.3848E+01
      2.463  0.3024E+00  0.3872E+01
      2.543  0.5842E+00  0.3919E+01
      2.623  0.7810E+00  0.3982E+01
      2.703  0.7718E+00  0.4043E+01
      2.783  0.1305E+01  0.4147E+01
      2.863  0.2637E+01  0.4358E+01
      2.943  0.2838E+01  0.4585E+01
      3.023  0.2086E+01  0.4751E+01
      3.102  0.1431E+01  0.4866E+01
      3.182  0.1166E+01  0.4959E+01
      3.262  0.1661E+01  0.5092E+01
      3.342  0.1466E+01  0.5209E+01
      3.422  0.4979E+00  0.5249E+01
      3.502  0.3470E+00  0.5276E+01
      3.582  0.9213E+00  0.5350E+01
      3.662  0.9214E+00  0.5424E+01
      3.742  0.3017E+00  0.5448E+01
      3.822  0.7555E-01  0.5454E+01
      3.901  0.2986E+00  0.5478E+01
      3.981  0.8613E+00  0.5546E+01
      4.061  0.1142E+01  0.5638E+01
      4.141  0.6475E+00  0.5689E+01
      4.221  0.2447E+00  0.5709E+01
      4.301  0.4493E+00  0.5745E+01
      4.381  0.8996E+00  0.5817E+01
      4.461  0.1765E+01  0.5958E+01
      4.541  0.2265E+01  0.6139E+01
      4.620  0.1558E+01  0.6263E+01
      4.700  0.1100E+01  0.6351E+01
      4.780  0.1139E+01  0.6442E+01
      4.860  0.1049E+01  0.6526E+01
      4.940  0.9522E+00  0.6602E+01
      5.020  0.1315E+01  0.6707E+01
      5.100  0.1272E+01  0.6808E+01
      5.180  0.1140E+01  0.6899E+01
      5.260  0.1165E+01  0.6993E+01
      5.339  0.1233E+01  0.7091E+01
      5.419  0.1653E+01  0.7223E+01
      5.499  0.1717E+01  0.7360E+01
      5.579  0.2170E+01  0.7534E+01
      5.659  0.3168E+01  0.7787E+01
      5.739  0.2131E+01  0.7957E+01
      5.819  0.5006E+00  0.7997E+01
      5.899  0.3789E-01  0.8000E+01
      5.979  0.9032E-03  0.8000E+01
      6.058  0.1555E-02  0.8000E+01
      6.138  0.3530E-01  0.8003E+01
      6.218  0.2620E+00  0.8024E+01
      6.298  0.8269E+00  0.8090E+01
      6.378  0.1819E+01  0.8235E+01
      6.458  0.2589E+01  0.8442E+01
      6.538  0.1959E+01  0.8599E+01
      6.618  0.1454E+01  0.8715E+01
      6.698  0.1472E+01  0.8832E+01
      6.777  0.1066E+01  0.8918E+01
      6.857  0.8587E+00  0.8986E+01
      6.937  0.1015E+01  0.9067E+01
      7.017  0.9063E+00  0.9140E+01
      7.097  0.8682E+00  0.9209E+01
      7.177  0.1071E+01  0.9295E+01
      7.257  0.1094E+01  0.9382E+01
      7.337  0.1075E+01  0.9468E+01
      7.417  0.8163E+00  0.9533E+01
      7.496  0.4627E+00  0.9570E+01
      7.576  0.4321E+00  0.9604E+01
      7.656  0.7700E+00  0.9666E+01
      7.736  0.1186E+01  0.9761E+01
      7.816  0.8784E+00  0.9831E+01
      7.896  0.4052E+00  0.9863E+01
      7.976  0.3826E+00  0.9894E+01
      8.056  0.6942E+00  0.9949E+01
      8.136  0.1797E+01  0.1009E+02
      8.215  0.3465E+01  0.1037E+02
      8.295  0.3522E+01  0.1065E+02
      8.375  0.2327E+01  0.1084E+02
      8.455  0.1979E+01  0.1100E+02
      8.535  0.2092E+01  0.1116E+02
      8.615  0.1854E+01  0.1131E+02
      8.695  0.1499E+01  0.1143E+02
      8.775  0.1588E+01  0.1156E+02
      8.855  0.1588E+01  0.1168E+02
      8.934  0.1212E+01  0.1178E+02
      9.014  0.1911E+01  0.1193E+02
      9.094  0.3328E+01  0.1220E+02
      9.174  0.3819E+01  0.1250E+02
      9.254  0.2612E+01  0.1271E+02
      9.334  0.9483E+00  0.1279E+02
      9.414  0.2802E+00  0.1281E+02
      9.494  0.2755E+00  0.1283E+02
      9.574  0.1880E+00  0.1285E+02
      9.654  0.2201E+00  0.1287E+02
      9.733  0.7770E+00  0.1293E+02
      9.813  0.1200E+01  0.1302E+02
      9.893  0.1075E+01  0.1311E+02
      9.973  0.1091E+01  0.1320E+02
     10.053  0.8315E+00  0.1326E+02
     10.133  0.3702E+00  0.1329E+02
     10.213  0.1350E+00  0.1330E+02
     10.293  0.2431E+00  0.1332E+02
     10.373  0.4414E+00  0.1336E+02
     10.452  0.3708E+00  0.1339E+02
     10.532  0.1343E+00  0.1340E+02
     10.612  0.3525E-01  0.1340E+02
     10.692  0.1296E+00  0.1341E+02
     10.772  0.3686E+00  0.1344E+02
     10.852  0.6556E+00  0.1349E+02
     10.932  0.7951E+00  0.1356E+02
     11.012  0.5302E+00  0.1360E+02
     11.092  0.4155E+00  0.1363E+02
     11.171  0.5528E+00  0.1368E+02
     11.251  0.6082E+00  0.1373E+02
     11.331  0.5291E+00  0.1377E+02
     11.411  0.5178E+00  0.1381E+02
     11.491  0.5363E+00  0.1385E+02
     11.571  0.4395E+00  0.1389E+02
     11.651  0.3168E+00  0.1391E+02
     11.731  0.3729E+00  0.1394E+02
     11.811  0.5486E+00  0.1399E+02
     11.890  0.7221E+00  0.1404E+02
     11.970  0.5686E+00  0.1409E+02
     12.050  0.3874E+00  0.1412E+02
     12.130  0.3012E+00  0.1414E+02
     12.210  0.2494E+00  0.1416E+02
     12.290  0.2784E+00  0.1419E+02
     12.370  0.1462E+00  0.1420E+02
     12.450  0.2744E-01  0.1420E+02
     12.530  0.3903E-01  0.1420E+02
     12.609  0.1786E+00  0.1422E+02
     12.689  0.2907E+00  0.1424E+02
     12.769  0.3719E+00  0.1427E+02
     12.849  0.7434E+00  0.1433E+02
     12.929  0.7377E+00  0.1439E+02
     13.009  0.5385E+00  0.1443E+02
     13.089  0.5495E+00  0.1448E+02
     13.169  0.2680E+00  0.1450E+02
     13.249  0.1317E+00  0.1451E+02
     13.328  0.5117E+00  0.1455E+02
     13.408  0.1092E+01  0.1464E+02
     13.488  0.1057E+01  0.1472E+02
     13.568  0.7583E+00  0.1478E+02
     13.648  0.6676E+00  0.1483E+02
     13.728  0.5148E+00  0.1488E+02
     13.808  0.5041E+00  0.1492E+02
     13.888  0.6704E+00  0.1497E+02
     13.968  0.6496E+00  0.1502E+02
     14.047  0.4961E+00  0.1506E+02
     14.127  0.3473E+00  0.1509E+02
     14.207  0.1787E+00  0.1510E+02
     14.287  0.2329E+00  0.1512E+02
     14.367  0.3857E+00  0.1515E+02
     14.447  0.4078E+00  0.1518E+02
     14.527  0.3661E+00  0.1521E+02
     14.607  0.3146E+00  0.1524E+02
     14.687  0.2371E+00  0.1526E+02
     14.766  0.4052E+00  0.1529E+02
     14.846  0.7515E+00  0.1535E+02
     14.926  0.8494E+00  0.1542E+02
     15.006  0.6189E+00  0.1547E+02
     15.086  0.5880E+00  0.1551E+02
     15.166  0.4120E+00  0.1555E+02
     15.246  0.3324E+00  0.1557E+02
     15.326  0.5154E+00  0.1562E+02
     15.406  0.5667E+00  0.1566E+02
     15.486  0.7629E+00  0.1572E+02
     15.565  0.1369E+01  0.1583E+02
     15.645  0.1442E+01  0.1595E+02
     15.725  0.5900E+00  0.1599E+02
     15.805  0.8207E-01  0.1600E+02
     15.885  0.3637E-02  0.1600E+02
     15.965  0.4918E-04  0.1600E+02
     16.045  0.1972E-06  0.1600E+02
     16.125  0.2301E-09  0.1600E+02
     16.205  0.7720E-13  0.1600E+02
     16.284  0.0000E+00  0.1600E+02
     16.364  0.0000E+00  0.1600E+02
     16.444  0.0000E+00  0.1600E+02
     16.524  0.0000E+00  0.1600E+02
     16.604  0.0000E+00  0.1600E+02
     16.684  0.0000E+00  0.1600E+02
     16.68386892     -7.28326532  301      5.96935601      1.00000000
     -7.283  0.0000E+00  0.0000E+00  0.0000E+00  0.0000E+00  0.0000E+00  0.0000E+00  0.0000E+00  0.0000E+00  0.0000E+00
     -7.203  0.0000E+00  0.0000E+00  0.0000E+00  0.0000E+00  0.0000E+00  0.0000E+00  0.0000E+00  0.0000E+00  0.0000E+00
     -7.123  0.0000E+00  0.0000E+00  0.0000E+00  0.0000E+00  0.0000E+00  0.0000E+00  0.0000E+00  0.0000E+00  0.0000E+00
     -7.044  0.0000E+00  0.0000E+00  0.0000E+00  0.0000E+00  0.0000E+00  0.0000E+00  0.0000E+00  0.0000E+00  0.0000E+00
     -6.964  0.0000E+00  0.0000E+00  0.0000E+00  0.0000E+00  0.0000E+00  0.0000E+00  0.0000E+00  0.0000E+00  0.0000E+00
     -6.884  0.0000E+00  0.0000E+00  0.0000E+00  0.0000E+00  0.0000E+00  0.0000E+00  0.0000E+00  0.0000E+00  0.0000E+00
     -6.804  0.0000E+00  0.0000E+00  0.0000E+00  0.0000E+00  0.0000E+00  0.0000E+00  0.0000E+00  0.0000E+00  0.0000E+00
     -6.724  0.1306E-13  0.4631E-19  0.6652E-19  0.3506E-19  0.0000E+00  0.0000E+00  0.0000E+00  0.0000E+00  0.0000E+00
     -6.644  0.3872E-10  0.2439E-15  0.4416E-15  0.1882E-15  0.0000E+00  0.0000E+00  0.0000E+00  0.0000E+00  0.0000E+00
     -6.564  0.3309E-07  0.4164E-12  0.7999E-12  0.2966E-12  0.0000E+00  0.0000E+00  0.0000E+00  0.0000E+00  0.0000E+00
     -6.484  0.8274E-05  0.2087E-09  0.4226E-09  0.1347E-09  0.0000E+00  0.0000E+00  0.0000E+00  0.0000E+00  0.0000E+00
     -6.404  0.6199E-03  0.3114E-07  0.6584E-07  0.1785E-07  0.0000E+00  0.0000E+00  0.0000E+00  0.0000E+00  0.0000E+00
     -6.325  0.1445E-01  0.1411E-05  0.3075E-05  0.7069E-06  0.0000E+00  0.0000E+00  0.0000E+00  0.0000E+00  0.0000E+00
     -6.245  0.1104E+00  0.2012E-04  0.4434E-04  0.8863E-05  0.0000E+00  0.0000E+00  0.0000E+00  0.0000E+00  0.0000E+00
     -6.165  0.2959E+00  0.9889E-04  0.2136E-03  0.4226E-04  0.0000E+00  0.0000E+00  0.0000E+00  0.0000E+00  0.0000E+00
     -6.085  0.3179E+00  0.2232E-03  0.4742E-03  0.1113E-03  0.0000E+00  0.0000E+00  0.0000E+00  0.0000E+00  0.0000E+00
     -6.005  0.2208E+00  0.3846E-03  0.8905E-03  0.1756E-03  0.0000E+00  0.0000E+00  0.0000E+00  0.0000E+00  0.0000E+00
     -5.925  0.1737E+00  0.5290E-03  0.1156E-02  0.1851E-03  0.0000E+00  0.0000E+00  0.0000E+00  0.0000E+00  0.0000E+00
     -5.845  0.1206E+00  0.5261E-03  0.9092E-03  0.3012E-03  0.0000E+00  0.0000E+00  0.0000E+00  0.0000E+00  0.0000E+00
     -5.765  0.1002E+00  0.4725E-03  0.1212E-02  0.3139E-03  0.0000E+00  0.0000E+00  0.0000E+00  0.0000E+00  0.0000E+00
     -5.685  0.1204E+00  0.6923E-03  0.2084E-02  0.1848E-03  0.0000E+00  0.0000E+00  0.0000E+00  0.0000E+00  0.0000E+00
     -5.606  0.1255E+00  0.1073E-02  0.1948E-02  0.3722E-03  0.0000E+00  0.0000E+00  0.0000E+00  0.0000E+00  0.0000E+00
     -5.526  0.8857E-01  0.8936E-03  0.1105E-02  0.5852E-03  0.0000E+00  0.0000E+00  0.0000E+00  0.0000E+00  0.0000E+00
     -5.446  0.4582E-01  0.3689E-03  0.8588E-03  0.3146E-03  0.0000E+00  0.0000E+00  0.0000E+00  0.0000E+00  0.0000E+00
     -5.366  0.6009E-01  0.2957E-03  0.2175E-02  0.1199E-03  0.0000E+00  0.0000E+00  0.0000E+00  0.0000E+00  0.0000E+00
     -5.286  0.1169E+00  0.1234E-02  0.3562E-02  0.4409E-03  0.0000E+00  0.0000E+00  0.0000E+00  0.0000E+00  0.0000E+00
     -5.206  0.1311E+00  0.2053E-02  0.2968E-02  0.9133E-03  0.0000E+00  0.0000E+00  0.0000E+00  0.0000E+00  0.0000E+00
     -5.126  0.6592E-01  0.1132E-02  0.1247E-02  0.6124E-03  0.0000E+00  0.0000E+00  0.0000E+00  0.0000E+00  0.0000E+00
     -5.046  0.1365E-01  0.2100E-03  0.3094E-03  0.1357E-03  0.0000E+00  0.0000E+00  0.0000E+00  0.0000E+00  0.0000E+00
     -4.966  0.2031E-01  0.1159E-03  0.1114E-02  0.1059E-03  0.0000E+00  0.0000E+00  0.0000E+00  0.0000E+00  0.0000E+00
     -4.887  0.8166E-01  0.7353E-03  0.3995E-02  0.6028E-03  0.0000E+00  0.0000E+00  0.0000E+00  0.0000E+00  0.0000E+00
     -4.807  0.1344E+00  0.2036E-02  0.5405E-02  0.1232E-02  0.0000E+00  0.0000E+00  0.0000E+00  0.0000E+00  0.0000E+00
     -4.727  0.1058E+00  0.2442E-02  0.3544E-02  0.9065E-03  0.0000E+00  0.0000E+00  0.0000E+00  0.0000E+00  0.0000E+00
     -4.647  0.4203E-01  0.1204E-02  0.1316E-02  0.2746E-03  0.0000E+00  0.0000E+00  0.0000E+00  0.0000E+00  0.0000E+00
     -4.567  0.1026E-01  0.2872E-03  0.2939E-03  0.1100E-03  0.0000E+00  0.0000E+00  0.0000E+00  0.0000E+00  0.0000E+00
     -4.487  0.2601E-01  0.5586E-03  0.6772E-03  0.5482E-03  0.0000E+00  0.0000E+00  0.0000E+00  0.0000E+00  0.0000E+00
     -4.407  0.6902E-01  0.1252E-02  0.2564E-02  0.1248E-02  0.0000E+00  0.0000E+00  0.0000E+00  0.0000E+00  0.0000E+00
     -4.327  0.8857E-01  0.1020E-02  0.5542E-02  0.9347E-03  0.0000E+00  0.0000E+00  0.0000E+00  0.0000E+00  0.0000E+00
     -4.247  0.8190E-01  0.1120E-02  0.6047E-02  0.4705E-03  0.0000E+00  0.0000E+00  0.0000E+00  0.0000E+00  0.0000E+00
     -4.168  0.8216E-01  0.2386E-02  0.4086E-02  0.8345E-03  0.0000E+00  0.0000E+00  0.0000E+00  0.0000E+00  0.0000E+00
     -4.088  0.8695E-01  0.2584E-02  0.2767E-02  0.1409E-02  0.0000E+00  0.0000E+00  0.0000E+00  0.0000E+00  0.0000E+00
     -4.008  0.7765E-01  0.1844E-02  0.1850E-02  0.1563E-02  0.0000E+00  0.0000E+00  0.0000E+00  0.0000E+00  0.0000E+00
     -3.928  0.6930E-01  0.1443E-02  0.1445E-02  0.1422E-02  0.0000E+00  0.0000E+00  0.0000E+00  0.0000E+00  0.0000E+00
     -3.848  0.6083E-01  0.1211E-02  0.1302E-02  0.1210E-02  0.0000E+00  0.0000E+00  0.0000E+00  0.0000E+00  0.0000E+00
     -3.768  0.3250E-01  0.4778E-03  0.1728E-02  0.4712E-03  0.0000E+00  0.0000E+00  0.0000E+00  0.0000E+00  0.0000E+00
     -3.688  0.4831E-01  0.3402E-03  0.5670E-02  0.2299E-03  0.0000E+00  0.0000E+00  0.0000E+00  0.0000E+00  0.0000E+00
     -3.608  0.8688E-01  0.1468E-02  0.8639E-02  0.8959E-03  0.0000E+00  0.0000E+00  0.0000E+00  0.0000E+00  0.0000E+00
     -3.528  0.7875E-01  0.2392E-02  0.5452E-02  0.1459E-02  0.0000E+00  0.0000E+00  0.0000E+00  0.0000E+00  0.0000E+00
     -3.449  0.3223E-01  0.1239E-02  0.1648E-02  0.7554E-03  0.0000E+00  0.0000E+00  0.0000E+00  0.0000E+00  0.0000E+00
     -3.369  0.4880E-02  0.2015E-03  0.2182E-03  0.1229E-03  0.0000E+00  0.0000E+00  0.0000E+00  0.0000E+00  0.0000E+00
     -3.289  0.2412E-03  0.1014E-04  0.1035E-04  0.6244E-05  0.0000E+00  0.0000E+00  0.0000E+00  0.0000E+00  0.0000E+00
     -3.209  0.1518E-03  0.5331E-05  0.6250E-05  0.8102E-05  0.0000E+00  0.0000E+00  0.0000E+00  0.0000E+00  0.0000E+00
     -3.129  0.3694E-02  0.1227E-03  0.1776E-03  0.1897E-03  0.0000E+00  0.0000E+00  0.0000E+00  0.0000E+00  0.0000E+00
     -3.049  0.3006E-01  0.8896E-03  0.1879E-02  0.1376E-02  0.0000E+00  0.0000E+00  0.0000E+00  0.0000E+00  0.0000E+00
     -2.969  0.8626E-01  0.2021E-02  0.7506E-02  0.3126E-02  0.0000E+00  0.0000E+00  0.0000E+00  0.0000E+00  0.0000E+00
     -2.889  0.9327E-01  0.1457E-02  0.1102E-01  0.2253E-02  0.0000E+00  0.0000E+00  0.0000E+00  0.0000E+00  0.0000E+00
     -2.809  0.3850E-01  0.3316E-03  0.5625E-02  0.5130E-03  0.0000E+00  0.0000E+00  0.0000E+00  0.0000E+00  0.0000E+00
     -2.730  0.6497E-02  0.4009E-04  0.9926E-03  0.8432E-04  0.0000E+00  0.0000E+00  0.0000E+00  0.0000E+00  0.0000E+00
     -2.650  0.1324E-01  0.2906E-03  0.8916E-03  0.8330E-03  0.0000E+00  0.0000E+00  0.0000E+00  0.0000E+00  0.0000E+00
     -2.570  0.7073E-01  0.1574E-02  0.4720E-02  0.4451E-02  0.0000E+00  0.0000E+00  0.0000E+00  0.0000E+00  0.0000E+00
     -2.490  0.1360E+00  0.2932E-02  0.1018E-01  0.7738E-02  0.0000E+00  0.0000E+00  0.0000E+00  0.0000E+00  0.0000E+00
     -2.410  0.1324E+00  0.2515E-02  0.1349E-01  0.5062E-02  0.0000E+00  0.0000E+00  0.0000E+00  0.0000E+00  0.0000E+00
     -2.330  0.1323E+00  0.1858E-02  0.1860E-01  0.2282E-02  0.0000E+00  0.0000E+00  0.0000E+00  0.0000E+00  0.0000E+00
     -2.250  0.1949E+00  0.1573E-02  0.3438E-01  0.1595E-02  0.0000E+00  0.0000E+00  0.0000E+00  0.0000E+00  0.0000E+00
     -2.170  0.3934E+00  0.1257E-02  0.8193E-01  0.1258E-02  0.0000E+00  0.0000E+00  0.0000E+00  0.0000E+00  0.0000E+00
     -2.090  0.5891E+00  0.8981E-03  0.1309E+00  0.8981E-03  0.0000E+00  0.0000E+00  0.0000E+00  0.0000E+00  0.0000E+00
     -2.010  0.4359E+00  0.8374E-03  0.9917E-01  0.8374E-03  0.0000E+00  0.0000E+00  0.0000E+00  0.0000E+00  0.0000E+00
     -1.931  0.2070E+00  0.1074E-02  0.4766E-01  0.1074E-02  0.0000E+00  0.0000E+00  0.0000E+00  0.0000E+00  0.0000E+00
     -1.851  0.1268E+00  0.1344E-02  0.2936E-01  0.1344E-02  0.0000E+00  0.0000E+00  0.0000E+00  0.0000E+00  0.0000E+00
     -1.771  0.1033E+00  0.1572E-02  0.2397E-01  0.1582E-02  0.0000E+00  0.0000E+00  0.0000E+00  0.0000E+00  0.0000E+00
     -1.691  0.9198E-01  0.1812E-02  0.2108E-01  0.2136E-02  0.0000E+00  0.0000E+00  0.0000E+00  0.0000E+00  0.0000E+00
     -1.611  0.9619E-01  0.2383E-02  0.1938E-01  0.5440E-02  0.0000E+00  0.0000E+00  0.0000E+00  0.0000E+00  0.0000E+00
     -1.531  0.1155E+00  0.3314E-02  0.1798E-01  0.1232E-01  0.0000E+00  0.0000E+00  0.0000E+00  0.0000E+00  0.0000E+00
     -1.451  0.8698E-01  0.2633E-02  0.1196E-01  0.1104E-01  0.0000E+00  0.0000E+00  0.0000E+00  0.0000E+00  0.0000E+00
     -1.371  0.3073E-01  0.1405E-02  0.5085E-02  0.3888E-02  0.0000E+00  0.0000E+00  0.0000E+00  0.0000E+00  0.0000E+00
     -1.291  0.4130E-01  0.4250E-02  0.1179E-01  0.4513E-02  0.0000E+00  0.0000E+00  0.0000E+00  0.0000E+00  0.0000E+00
     -1.212  0.8122E-01  0.8527E-02  0.2306E-01  0.9237E-02  0.0000E+00  0.0000E+00  0.0000E+00  0.0000E+00  0.0000E+00
     -1.132  0.7538E-01  0.7342E-02  0.1649E-01  0.1172E-01  0.0000E+00  0.0000E+00  0.0000E+00  0.0000E+00  0.0000E+00
     -1.052  0.7222E-01  0.8262E-02  0.1008E-01  0.1683E-01  0.0000E+00  0.0000E+00  0.0000E+00  0.0000E+00  0.0000E+00
     -0.972  0.5774E-01  0.1003E-01  0.1015E-01  0.1535E-01  0.0000E+00  0.0000E+00  0.0000E+00  0.0000E+00  0.0000E+00
     -0.892  0.2176E-01  0.5117E-02  0.5119E-02  0.6155E-02  0.0000E+00  0.0000E+00  0.0000E+00  0.0000E+00  0.0000E+00
     -0.812  0.3246E-02  0.8875E-03  0.8875E-03  0.9503E-03  0.0000E+00  0.0000E+00  0.0000E+00  0.0000E+00  0.0000E+00
     -0.732  0.2462E-03  0.5603E-04  0.5603E-04  0.6895E-04  0.0000E+00  0.0000E+00  0.0000E+00  0.0000E+00  0.0000E+00
     -0.652  0.2110E-02  0.2030E-03  0.2030E-03  0.5157E-03  0.0000E+00  0.0000E+00  0.0000E+00  0.0000E+00  0.0000E+00
     -0.572  0.1796E-01  0.1891E-02  0.1898E-02  0.4427E-02  0.0000E+00  0.0000E+00  0.0000E+00  0.0000E+00  0.0000E+00
     -0.493  0.5339E-01  0.6915E-02  0.7191E-02  0.1335E-01  0.0000E+00  0.0000E+00  0.0000E+00  0.0000E+00  0.0000E+00
     -0.413  0.7079E-01  0.1114E-01  0.1460E-01  0.1631E-01  0.0000E+00  0.0000E+00  0.0000E+00  0.0000E+00  0.0000E+00
     -0.333  0.6905E-01  0.7528E-02  0.2095E-01  0.8842E-02  0.0000E+00  0.0000E+00  0.0000E+00  0.0000E+00  0.0000E+00
     -0.253  0.5304E-01  0.1851E-02  0.1834E-01  0.1955E-02  0.0000E+00  0.0000E+00  0.0000E+00  0.0000E+00  0.0000E+00
     -0.173  0.1855E-01  0.1490E-03  0.6566E-02  0.1515E-03  0.0000E+00  0.0000E+00  0.0000E+00  0.0000E+00  0.0000E+00
     -0.093  0.2211E-02  0.4090E-05  0.7851E-03  0.4410E-05  0.0000E+00  0.0000E+00  0.0000E+00  0.0000E+00  0.0000E+00
     -0.013  0.2649E-03  0.2583E-04  0.5487E-04  0.4569E-04  0.0000E+00  0.0000E+00  0.0000E+00  0.0000E+00  0.0000E+00
      0.067  0.3613E-02  0.5088E-03  0.5091E-03  0.9002E-03  0.0000E+00  0.0000E+00  0.0000E+00  0.0000E+00  0.0000E+00
      0.147  0.2196E-01  0.3108E-02  0.3108E-02  0.5479E-02  0.0000E+00  0.0000E+00  0.0000E+00  0.0000E+00  0.0000E+00
      0.226  0.4358E-01  0.6486E-02  0.6486E-02  0.1100E-01  0.0000E+00  0.0000E+00  0.0000E+00  0.0000E+00  0.0000E+00
      0.306  0.3835E-01  0.7779E-02  0.7779E-02  0.1050E-01  0.0000E+00  0.0000E+00  0.0000E+00  0.0000E+00  0.0000E+00
      0.386  0.3297E-01  0.9717E-02  0.9724E-02  0.1024E-01  0.0000E+00  0.0000E+00  0.0000E+00  0.0000E+00  0.0000E+00
      0.466  0.2002E-01  0.6162E-02  0.6455E-02  0.6193E-02  0.0000E+00  0.0000E+00  0.0000E+00  0.0000E+00  0.0000E+00
      0.546  0.1275E-01  0.1308E-02  0.5133E-02  0.1308E-02  0.0000E+00  0.0000E+00  0.0000E+00  0.0000E+00  0.0000E+00
      0.626  0.3542E-01  0.8624E-04  0.1558E-01  0.8624E-04  0.0000E+00  0.0000E+00  0.0000E+00  0.0000E+00  0.0000E+00
      0.706  0.4497E-01  0.1882E-05  0.1982E-01  0.1920E-05  0.0000E+00  0.0000E+00  0.0000E+00  0.0000E+00  0.0000E+00
      0.786  0.1831E-01  0.1450E-04  0.8053E-02  0.1782E-04  0.0000E+00  0.0000E+00  0.0000E+00  0.0000E+00  0.0000E+00
      0.866  0.4119E-02  0.3789E-03  0.1399E-02  0.4659E-03  0.0000E+00  0.0000E+00  0.0000E+00  0.0000E+00  0.0000E+00
      0.945  0.1452E-01  0.3029E-02  0.3069E-02  0.3724E-02  0.0000E+00  0.0000E+00  0.0000E+00  0.0000E+00  0.0000E+00
      1.025  0.3611E-01  0.7585E-02  0.7585E-02  0.9323E-02  0.0000E+00  0.0000E+00  0.0000E+00  0.0000E+00  0.0000E+00
      1.105  0.2943E-01  0.6352E-02  0.6352E-02  0.7742E-02  0.0000E+00  0.0000E+00  0.0000E+00  0.0000E+00  0.0000E+00
      1.185  0.1520E-01  0.5387E-02  0.5384E-02  0.5984E-02  0.0000E+00  0.0000E+00  0.0000E+00  0.0000E+00  0.0000E+00
      1.265  0.2505E-01  0.1580E-01  0.1571E-01  0.1741E-01  0.0000E+00  0.0000E+00  0.0000E+00  0.0000E+00  0.0000E+00
      1.345  0.2396E-01  0.2927E-01  0.2826E-01  0.3187E-01  0.0000E+00  0.0000E+00  0.0000E+00  0.0000E+00  0.0000E+00
      1.425  0.8295E-02  0.4063E-01  0.3695E-01  0.4139E-01  0.0000E+00  0.0000E+00  0.0000E+00  0.0000E+00  0.0000E+00
      1.505  0.7150E-02  0.4634E-01  0.4179E-01  0.5005E-01  0.0000E+00  0.0000E+00  0.0000E+00  0.0000E+00  0.0000E+00
      1.585  0.2743E-01  0.3751E-01  0.4265E-01  0.4453E-01  0.0000E+00  0.0000E+00  0.0000E+00  0.0000E+00  0.0000E+00
      1.664  0.4521E-01  0.2531E-01  0.4000E-01  0.2838E-01  0.0000E+00  0.0000E+00  0.0000E+00  0.0000E+00  0.0000E+00
      1.744  0.2532E-01  0.2063E-01  0.2382E-01  0.2105E-01  0.0000E+00  0.0000E+00  0.0000E+00  0.0000E+00  0.0000E+00
      1.824  0.8990E-02  0.1934E-01  0.1152E-01  0.1996E-01  0.0000E+00  0.0000E+00  0.0000E+00  0.0000E+00  0.0000E+00
      1.904  0.2307E-01  0.3099E-01  0.1831E-01  0.3550E-01  0.0000E+00  0.0000E+00  0.0000E+00  0.0000E+00  0.0000E+00
      1.984  0.3711E-01  0.3603E-01  0.2527E-01  0.4642E-01  0.0000E+00  0.0000E+00  0.0000E+00  0.0000E+00  0.0000E+00
      2.064  0.2008E-01  0.3051E-01  0.1702E-01  0.3799E-01  0.0000E+00  0.0000E+00  0.0000E+00  0.0000E+00  0.0000E+00
      2.144  0.7914E-02  0.2382E-01  0.9143E-02  0.2550E-01  0.0000E+00  0.0000E+00  0.0000E+00  0.0000E+00  0.0000E+00
      2.224  0.1831E-01  0.2340E-01  0.1135E-01  0.2352E-01  0.0000E+00  0.0000E+00  0.0000E+00  0.0000E+00  0.0000E+00
      2.304  0.2462E-01  0.3254E-01  0.1464E-01  0.3255E-01  0.0000E+00  0.0000E+00  0.0000E+00  0.0000E+00  0.0000E+00
      2.383  0.1097E-01  0.2396E-01  0.7894E-02  0.2416E-01  0.0000E+00  0.0000E+00  0.0000E+00  0.0000E+00  0.0000E+00
      2.463  0.4210E-02  0.2174E-01  0.5723E-02  0.2450E-01  0.0000E+00  0.0000E+00  0.0000E+00  0.0000E+00  0.0000E+00
      2.543  0.1740E-01  0.3216E-01  0.1941E-01  0.4350E-01  0.0000E+00  0.0000E+00  0.0000E+00  0.0000E+00  0.0000E+00
      2.623  0.4109E-01  0.3356E-01  0.3718E-01  0.4823E-01  0.0000E+00  0.0000E+00  0.0000E+00  0.0000E+00  0.0000E+00
      2.703  0.3302E-01  0.4673E-01  0.2734E-01  0.5274E-01  0.0000E+00  0.0000E+00  0.0000E+00  0.0000E+00  0.0000E+00
      2.783  0.9124E-02  0.1210E+00  0.7520E-02  0.1217E+00  0.0000E+00  0.0000E+00  0.0000E+00  0.0000E+00  0.0000E+00
      2.863  0.5786E-02  0.2573E+00  0.3306E-02  0.2564E+00  0.0000E+00  0.0000E+00  0.0000E+00  0.0000E+00  0.0000E+00
      2.943  0.2055E-01  0.2711E+00  0.9970E-02  0.2671E+00  0.0000E+00  0.0000E+00  0.0000E+00  0.0000E+00  0.0000E+00
      3.023  0.2679E-01  0.1942E+00  0.1292E-01  0.1889E+00  0.0000E+00  0.0000E+00  0.0000E+00  0.0000E+00  0.0000E+00
      3.102  0.1153E-01  0.1365E+00  0.6655E-02  0.1337E+00  0.0000E+00  0.0000E+00  0.0000E+00  0.0000E+00  0.0000E+00
      3.182  0.6664E-02  0.1088E+00  0.1386E-01  0.1040E+00  0.0000E+00  0.0000E+00  0.0000E+00  0.0000E+00  0.0000E+00
      3.262  0.1922E-01  0.1404E+00  0.4140E-01  0.1312E+00  0.0000E+00  0.0000E+00  0.0000E+00  0.0000E+00  0.0000E+00
      3.342  0.2225E-01  0.1165E+00  0.4190E-01  0.1126E+00  0.0000E+00  0.0000E+00  0.0000E+00  0.0000E+00  0.0000E+00
      3.422  0.8975E-02  0.3799E-01  0.1585E-01  0.3709E-01  0.0000E+00  0.0000E+00  0.0000E+00  0.0000E+00  0.0000E+00
      3.502  0.9518E-02  0.2666E-01  0.2099E-01  0.1594E-01  0.0000E+00  0.0000E+00  0.0000E+00  0.0000E+00  0.0000E+00
      3.582  0.2842E-01  0.6960E-01  0.5479E-01  0.4339E-01  0.0000E+00  0.0000E+00  0.0000E+00  0.0000E+00  0.0000E+00
      3.662  0.2971E-01  0.6845E-01  0.4976E-01  0.4855E-01  0.0000E+00  0.0000E+00  0.0000E+00  0.0000E+00  0.0000E+00
      3.742  0.9848E-02  0.2228E-01  0.1490E-01  0.1728E-01  0.0000E+00  0.0000E+00  0.0000E+00  0.0000E+00  0.0000E+00
      3.822  0.1052E-02  0.6820E-02  0.5160E-02  0.2751E-02  0.0000E+00  0.0000E+00  0.0000E+00  0.0000E+00  0.0000E+00
      3.901  0.9737E-03  0.2919E-01  0.1919E-01  0.1185E-01  0.0000E+00  0.0000E+00  0.0000E+00  0.0000E+00  0.0000E+00
      3.981  0.7943E-02  0.7662E-01  0.3650E-01  0.5491E-01  0.0000E+00  0.0000E+00  0.0000E+00  0.0000E+00  0.0000E+00
      4.061  0.2096E-01  0.8783E-01  0.3683E-01  0.8861E-01  0.0000E+00  0.0000E+00  0.0000E+00  0.0000E+00  0.0000E+00
      4.141  0.1795E-01  0.4268E-01  0.2213E-01  0.5127E-01  0.0000E+00  0.0000E+00  0.0000E+00  0.0000E+00  0.0000E+00
      4.221  0.9040E-02  0.1561E-01  0.1300E-01  0.1450E-01  0.0000E+00  0.0000E+00  0.0000E+00  0.0000E+00  0.0000E+00
      4.301  0.1414E-01  0.3408E-01  0.3313E-01  0.1622E-01  0.0000E+00  0.0000E+00  0.0000E+00  0.0000E+00  0.0000E+00
      4.381  0.1512E-01  0.7194E-01  0.6315E-01  0.4379E-01  0.0000E+00  0.0000E+00  0.0000E+00  0.0000E+00  0.0000E+00
      4.461  0.1549E-01  0.1343E+00  0.1105E+00  0.1203E+00  0.0000E+00  0.0000E+00  0.0000E+00  0.0000E+00  0.0000E+00
      4.541  0.2422E-01  0.1600E+00  0.1503E+00  0.1576E+00  0.0000E+00  0.0000E+00  0.0000E+00  0.0000E+00  0.0000E+00
      4.620  0.1592E-01  0.1064E+00  0.1148E+00  0.1029E+00  0.0000E+00  0.0000E+00  0.0000E+00  0.0000E+00  0.0000E+00
      4.700  0.3486E-02  0.8098E-01  0.8451E-01  0.6884E-01  0.0000E+00  0.0000E+00  0.0000E+00  0.0000E+00  0.0000E+00
      4.780  0.7859E-03  0.8126E-01  0.8123E-01  0.7932E-01  0.0000E+00  0.0000E+00  0.0000E+00  0.0000E+00  0.0000E+00
      4.860  0.7393E-03  0.6881E-01  0.6300E-01  0.8890E-01  0.0000E+00  0.0000E+00  0.0000E+00  0.0000E+00  0.0000E+00
      4.940  0.6355E-03  0.7400E-01  0.4210E-01  0.8341E-01  0.0000E+00  0.0000E+00  0.0000E+00  0.0000E+00  0.0000E+00
      5.020  0.3221E-02  0.1155E+00  0.6047E-01  0.9899E-01  0.0000E+00  0.0000E+00  0.0000E+00  0.0000E+00  0.0000E+00
      5.100  0.9914E-02  0.1134E+00  0.8358E-01  0.6690E-01  0.0000E+00  0.0000E+00  0.0000E+00  0.0000E+00  0.0000E+00
      5.180  0.1386E-01  0.9065E-01  0.9155E-01  0.5221E-01  0.0000E+00  0.0000E+00  0.0000E+00  0.0000E+00  0.0000E+00