    2    2    1    1
  0.2041193E+02  0.3864942E-09  0.3864942E-09  0.3864942E-09  0.5000000E-15
  1.000000000000000E-004
  CAR 
 fcc Si                                  
      8     40      8
 
  0.5000000E+00  0.5000000E+00  0.5000000E+00  0.2500000E-01
    1       -3.911576   1.000000
    2       -1.243893   1.000000
    3        4.456460   1.000000
    4        4.456460   1.000000
    5        7.116114   0.000000
    6        9.004733   0.000000
    7        9.004733   0.000000
    8       13.344429   0.000000
 
  0.4444444E+00  0.4444444E+00  0.4444444E+00  0.2500000E-01
    1       -4.069210   1.000000
    2       -1.010387   1.000000
    3        4.478564   1.000000
    4        4.478564   1.000000
    5        7.141793   0.000000
    6        9.028636   0.000000
    7        9.028636   0.000000
    8       13.381105   0.000000
 
  0.3888889E+00  0.3888889E+00  0.3888889E+00  0.2500000E-01
    1       -4.429743   1.000000
    2       -0.424783   1.000000
    3        4.545052   1.000000
    4        4.545052   1.000000
    5        7.217814   0.000000
    6        9.088773   0.000000
    7        9.088773   0.000000
    8       13.465007   0.000000
 
  0.3333333E+00  0.3333333E+00  0.3333333E+00  0.2500000E-01
    1       -4.841843   1.000000
    2        0.359063   1.000000
    3        4.654121   1.000000
    4        4.654121   1.000000
    5        7.343315   0.000000
    6        9.156568   0.000000
    7        9.156568   0.000000
    8       13.431023   0.000000
 
  0.2777778E+00  0.2777778E+00  0.2777778E+00  0.2500000E-01
    1       -5.231809   1.000000
    2        1.261861   1.000000
    3        4.804018   1.000000
    4        4.804018   1.000000
    5        7.509955   0.000000
    6        9.173666   0.000000
    7        9.173666   0.000000
    8       12.849584   0.000000
 
  0.2222222E+00  0.2222222E+00  0.2222222E+00  0.2500000E-01
    1       -5.568643   1.000000
    2        2.244798   1.000000
    3        4.989624   1.000000
    4        4.989624   1.000000
    5        7.712512   0.000000
    6        9.073665   0.000000
    7        9.073665   0.000000
    8       11.924745   0.000000
 
  0.1666667E+00  0.1666667E+00  0.1666667E+00  0.2500000E-01
    1       -5.838800   1.000000
    2        3.272364   1.000000
    3        5.198495   1.000000
    4        5.198495   1.000000
    5        7.933140   0.000000
    6        8.840561   0.000000
    7        8.840561   0.000000
    8       10.930100   0.000000
 
  0.1111111E+00  0.1111111E+00  0.1111111E+00  0.2500000E-01
    1       -6.035114   1.000000
    2        4.299516   1.000000
    3        5.408548   1.000000
    4        5.408548   1.000000
    5        8.137075   0.000000
    6        8.546689   0.000000
    7        8.546689   0.000000
    8        9.942649   0.000000
 
  0.5555556E-01  0.5555556E-01  0.5555556E-01  0.2500000E-01
    1       -6.154032   1.000000
    2        5.209552   1.000000
    3        5.577082   1.000000
    4        5.577083   1.000000
    5        8.248067   0.000000
    6        8.300665   0.000000
    7        8.300704   0.000000
    8        9.104292   0.000000
 
  0.2775558E-16  0.2775558E-16  0.2775558E-16  0.2500000E-01
    1       -6.193850   1.000000
    2        5.643444   0.999998
    3        5.643460   0.999998
    4        5.643460   0.999998
    5        8.203283   0.000000
    6        8.203300   0.000000
    7        8.203300   0.000000
    8        8.783579   0.000000
 
  0.0000000E+00  0.0000000E+00  0.0000000E+00  0.2500000E-01
    1       -6.193850   1.000000
    2        5.643444   0.999998
    3        5.643460   0.999998
    4        5.643460   0.999998
    5        8.203283   0.000000
    6        8.203300   0.000000
    7        8.203300   0.000000
    8        8.783579   0.000000
 
  0.0000000E+00  0.5555556E-01  0.5555556E-01  0.2500000E-01
    1       -6.140742   1.000000
    2        5.292992   1.000000
    3        5.435385   1.000000
    4        5.435395   1.000000
    5        8.076378   0.000000
    6        8.476918   0.000000
    7        8.476930   0.000000
    8        9.120489   0.000000
 
  0.0000000E+00  0.1111111E+00  0.1111111E+00  0.2500000E-01
    1       -5.981640   1.000000
    2        4.512374   1.000000
    3        4.977982   1.000000
    4        4.977992   1.000000
    5        7.756446   0.000000
    6        9.127236   0.000000
    7        9.127247   0.000000
    8        9.755185   0.000000
 
  0.0000000E+00  0.1666667E+00  0.1666667E+00  0.2500000E-01
    1       -5.717739   1.000000
    2        3.585016   1.000000
    3        4.471276   1.000000
    4        4.471286   1.000000
    5        7.358628   0.000000
    6        9.863841   0.000000
    7        9.954096   0.000000
    8        9.954107   0.000000
 
  0.0000000E+00  0.2222222E+00  0.2222222E+00  0.2500000E-01
    1       -5.350985   1.000000
    2        2.610858   1.000000
    3        3.997997   1.000000
    4        3.998007   1.000000
    5        6.969417   0.000000
    6        9.196823   0.000000
    7       10.869387   0.000000
    8       10.869399   0.000000
 
  0.0000000E+00  0.2777778E+00  0.2777778E+00  0.2500000E-01
    1       -4.884259   1.000000
    2        1.624160   1.000000
    3        3.589852   1.000000
    4        3.589861   1.000000
    5        6.640550   0.000000
    6        8.391732   0.000000
    7       11.836616   0.000000
    8       11.836631   0.000000
 
  0.0000000E+00  0.3333333E+00  0.3333333E+00  0.2500000E-01
    1       -4.321348   1.000000
    2        0.643038   1.000000
    3        3.264076   1.000000
    4        3.264085   1.000000
    5        6.402740   0.000000
    6        7.674003   0.000000
    7       12.840851   0.000000
    8       12.840866   0.000000
 
  0.0000000E+00  0.3888889E+00  0.3888889E+00  0.2500000E-01
    1       -3.667533   1.000000
    2       -0.318494   1.000000
    3        3.027051   1.000000
    4        3.027061   1.000000
    5        6.275038   0.000008
    6        7.095619   0.000000
    7       13.864209   0.000000
    8       13.864300   0.000000
 
  0.0000000E+00  0.4444444E+00  0.4444444E+00  0.2500000E-01
    1       -2.930471   1.000000
    2       -1.243744   1.000000
    3        2.883491   1.000000
    4        2.883500   1.000000
    5        6.269662   0.000011
    6        6.671788   0.000000
    7       14.886751   0.000000
    8       14.886777   0.000000
 
  0.0000000E+00  0.5000000E+00  0.5000000E+00  0.2500000E-01
    1       -2.118817   1.000000
    2       -2.118816   1.000000
    3        2.835076   1.000000
    4        2.835086   1.000000
    5        6.398394   0.000000
    6        6.398415   0.000000
    7       15.593662   0.000000
    8       15.594454   0.000000
 
  0.0000000E+00  0.5000000E+00  0.5000000E+00  0.2500000E-01
    1       -2.118817   1.000000
    2       -2.118816   1.000000
    3        2.835076   1.000000
    4        2.835086   1.000000
    5        6.398394   0.000000
    6        6.398415   0.000000
    7       15.593693   0.000000
    8       15.593996   0.000000
 
  0.2777778E-01  0.5138889E+00  0.5138889E+00  0.2500000E-01
    1       -2.121870   1.000000
    2       -2.111600   1.000000
    3        2.790297   1.000000
    4        2.840356   1.000000
    5        6.403945   0.000000
    6        6.464013   0.000000
    7       15.523939   0.000000
    8       15.554345   0.000000
 
  0.5555556E-01  0.5277778E+00  0.5277778E+00  0.2500000E-01
    1       -2.131000   1.000000
    2       -2.089947   1.000000
    3        2.667387   1.000000
    4        2.856444   1.000000
    5        6.422314   0.000000
    6        6.655332   0.000000
    7       15.333940   0.000000
    8       15.440483   0.000000
 
  0.8333333E-01  0.5416667E+00  0.5416667E+00  0.2500000E-01
    1       -2.147525   1.000000
    2       -2.053838   1.000000
    3        2.490179   1.000000
    4        2.883372   1.000000
    5        6.453660   0.000000
    6        6.945991   0.000000
    7       15.066879   0.000000
    8       15.267242   0.000000
 
  0.1111111E+00  0.5555556E+00  0.5555556E+00  0.2500000E-01
    1       -2.173284   1.000000
    2       -2.003389   1.000000
    3        2.284800   1.000000
    4        2.920258   1.000000
    5        6.496258   0.000000
    6        7.311867   0.000000
    7       14.753674   0.000000
    8       15.051994   0.000000
 
  0.1388889E+00  0.5694444E+00  0.5694444E+00  0.2500000E-01
    1       -2.210753   1.000000
    2       -1.938523   1.000000
    3        2.072916   1.000000
    4        2.967598   1.000000
    5        6.550784   0.000000
    6        7.734701   0.000000
    7       14.419056   0.000000
    8       14.840942   0.000000
 
  0.1666667E+00  0.5833333E+00  0.5833333E+00  0.2500000E-01
    1       -2.262838   1.000000
    2       -1.859298   1.000000
    3        1.870789   1.000000
    4        3.025042   1.000000
    5        6.616995   0.000000
    6        8.200186   0.000000
    7       14.074470   0.000000
    8       14.555830   0.000000
 
  0.1944444E+00  0.5972222E+00  0.5972222E+00  0.2500000E-01
    1       -2.332804   1.000000
    2       -1.765789   1.000000
    3        1.689939   1.000000
    4        3.092328   1.000000
    5        6.694508   0.000000
    6        8.697280   0.000000
    7       13.726316   0.000000
    8       14.306156   0.000000
 
  0.2222222E+00  0.6111111E+00  0.6111111E+00  0.2500000E-01
    1       -2.422598   1.000000
    2       -1.658015   1.000000
    3        1.539795   1.000000
    4        3.169133   1.000000
    5        6.782953   0.000000
    6        9.221914   0.000000
    7       13.380691   0.000000
    8       13.968027   0.000000
 
  0.2500000E+00  0.6250000E+00  0.6250000E+00  0.2500000E-01
    1       -2.534015   1.000000
    2       -1.535962   1.000000
    3        1.425494   1.000000
    4        3.255075   1.000000
    5        6.882143   0.000000
    6        9.767174   0.000000
    7       13.039548   0.000000
    8       13.594947   0.000000
 
  0.3750000E+00  0.7500000E+00  0.3750000E+00  0.2500000E-01
    1       -2.534015   1.000000
    2       -1.535962   1.000000
    3        1.425494   1.000000
    4        3.255075   1.000000
    5        6.882143   0.000000
    6        9.767174   0.000000
    7       13.039533   0.000000
    8       13.594004   0.000000
 
  0.3333333E+00  0.6666667E+00  0.3333333E+00  0.2500000E-01
    1       -2.991989   1.000000
    2       -1.085029   1.000000
    3        1.315241   1.000000
    4        3.562615   1.000000
    5        7.236697   0.000000
    6       11.442623   0.000000
    7       12.061288   0.000000
    8       12.637039   0.000000
 
  0.2916667E+00  0.5833333E+00  0.2916667E+00  0.2500000E-01
    1       -3.574203   1.000000
    2       -0.507768   1.000000
    3        1.520440   1.000000
    4        3.930579   1.000000
    5        7.653813   0.000000
    6       11.177112   0.000000
    7       11.527030   0.000000
    8       12.247616   0.000000
 
  0.2500000E+00  0.5000000E+00  0.2500000E+00  0.2500000E-01
    1       -4.186904   1.000000
    2        0.191337   1.000000
    3        1.958587   1.000000
    4        4.331799   1.000000
    5        8.087306   0.000000
    6       10.397572   0.000000
    7       10.745997   0.000000
    8       11.692117   0.000000
 
  0.2083333E+00  0.4166667E+00  0.2083333E+00  0.2500000E-01
    1       -4.761705   1.000000
    2        1.009170   1.000000
    3        2.561207   1.000000
    4        4.729851   1.000000
    5        8.448272   0.000000
    6        9.731844   0.000000
    7       10.054882   0.000000
    8       11.349032   0.000000
 
  0.1666667E+00  0.3333333E+00  0.1666667E+00  0.2500000E-01
    1       -5.260748   1.000000
    2        1.936761   1.000000
    3        3.274157   1.000000
    4        5.080766   1.000000
    5        8.627991   0.000000
    6        9.182645   0.000000
    7        9.464035   0.000000
    8       11.237443   0.000000
 
  0.1250000E+00  0.2500000E+00  0.1250000E+00  0.2500000E-01
    1       -5.662651   1.000000
    2        2.961320   1.000000
    3        4.045627   1.000000
    4        5.349258   1.000000
    5        8.617074   0.000000
    6        8.754742   0.000000
    7        8.981912   0.000000
    8       11.085619   0.000000
 
  0.8333333E-01  0.1666667E+00  0.8333333E-01  0.2500000E-01
    1       -5.955979   1.000000
    2        4.048970   1.000000
    3        4.797014   1.000000
    4        5.524432   1.000000
    5        8.449574   0.000000
    6        8.512419   0.000000
    7        8.597122   0.000000
    8       10.312196   0.000000
 
  0.4166667E-01  0.8333333E-01  0.4166667E-01  0.2500000E-01
    1       -6.134148   1.000000
    2        5.092587   1.000000
    3        5.398055   1.000000
    4        5.616057   1.000000
    5        8.265020   0.000000
    6        8.317367   0.000000
    7        8.373436   0.000000
    8        9.249871   0.000000
 
  0.2081668E-16  0.4163336E-16  0.2081668E-16  0.2500000E-01
    1       -6.193850   1.000000
    2        5.643444   0.999998
    3        5.643460   0.999998
    4        5.643460   0.999998
    5        8.203283   0.000000
    6        8.203300   0.000000
    7        8.203300   0.000000
    8        8.783580   0.000000
