       N       E                     dE             d eps       ncg     rms          rms(c)
DAV:   1     0.477475644306E+01    0.47748E+01   -0.21900E+03   640   0.423E+02
DAV:   2    -0.672191694444E+01   -0.11497E+02   -0.10778E+02  1032   0.590E+01
DAV:   3    -0.688440041261E+01   -0.16248E+00   -0.15716E+00   832   0.826E+00
DAV:   4    -0.688674807628E+01   -0.23477E-02   -0.23477E-02  1032   0.516E-01
DAV:   5    -0.688677415775E+01   -0.26081E-04   -0.26081E-04   808   0.271E-02
DAV:   6    -0.688677470748E+01   -0.54972E-06   -0.54938E-06   880   0.315E-03
   1 F= -.68867747E+01 E0= -.68867744E+01  d E =-.609967E-06
