PROCAR lm decomposed
# of k-points:   40         # of bands:    8         # of ions:    2

 k-point     1 :    0.50000000 0.50000000 0.50000000     weight = 0.02500000

band     1 # energy   -3.91157608 # occ.  2.00000000
 
ion      s     py     pz     px    dxy    dyz    dz2    dxz  x2-y2    tot
    1  0.224  0.004  0.004  0.004  0.000  0.000  0.000  0.000  0.000  0.238
    2  0.224  0.004  0.004  0.004  0.000  0.000  0.000  0.000  0.000  0.238
tot    0.449  0.009  0.009  0.009  0.000  0.000  0.000  0.000  0.000  0.476
 
band     2 # energy   -1.24389321 # occ.  2.00000000
 
ion      s     py     pz     px    dxy    dyz    dz2    dxz  x2-y2    tot
    1  0.100  0.031  0.031  0.031  0.000  0.000  0.000  0.000  0.000  0.193
    2  0.100  0.031  0.031  0.031  0.000  0.000  0.000  0.000  0.000  0.193
tot    0.200  0.062  0.062  0.062  0.000  0.000  0.000  0.000  0.000  0.386
 
band     3 # energy    4.45646037 # occ.  2.00000000
 
ion      s     py     pz     px    dxy    dyz    dz2    dxz  x2-y2    tot
    1  0.000  0.000  0.109  0.109  0.000  0.000  0.000  0.000  0.000  0.218
    2  0.000  0.000  0.109  0.109  0.000  0.000  0.000  0.000  0.000  0.218
tot    0.000  0.000  0.218  0.218  0.000  0.000  0.000  0.000  0.000  0.437
 
band     4 # energy    4.45646037 # occ.  2.00000000
 
ion      s     py     pz     px    dxy    dyz    dz2    dxz  x2-y2    tot
    1  0.000  0.146  0.036  0.036  0.000  0.000  0.000  0.000  0.000  0.218
    2  0.000  0.146  0.036  0.036  0.000  0.000  0.000  0.000  0.000  0.218
tot    0.000  0.291  0.073  0.073  0.000  0.000  0.000  0.000  0.000  0.437
 
band     5 # energy    7.11611414 # occ.  0.00000000
 
ion      s     py     pz     px    dxy    dyz    dz2    dxz  x2-y2    tot
    1  0.187  0.007  0.007  0.007  0.000  0.000  0.000  0.000  0.000  0.208
    2  0.187  0.007  0.007  0.007  0.000  0.000  0.000  0.000  0.000  0.208
tot    0.374  0.014  0.014  0.014  0.000  0.000  0.000  0.000  0.000  0.416
 
band     6 # energy    9.00473335 # occ.  0.00000000
 
ion      s     py     pz     px    dxy    dyz    dz2    dxz  x2-y2    tot
    1  0.000  0.000  0.048  0.048  0.000  0.000  0.000  0.000  0.000  0.096
    2  0.000  0.000  0.048  0.048  0.000  0.000  0.000  0.000  0.000  0.096
tot    0.000  0.000  0.096  0.096  0.000  0.000  0.000  0.000  0.000  0.193
 
band     7 # energy    9.00473336 # occ.  0.00000000
 
ion      s     py     pz     px    dxy    dyz    dz2    dxz  x2-y2    tot
    1  0.000  0.064  0.016  0.016  0.000  0.000  0.000  0.000  0.000  0.096
    2  0.000  0.064  0.016  0.016  0.000  0.000  0.000  0.000  0.000  0.096
tot    0.000  0.129  0.032  0.032  0.000  0.000  0.000  0.000  0.000  0.193
 
band     8 # energy   13.34442937 # occ.  0.00000000
 
ion      s     py     pz     px    dxy    dyz    dz2    dxz  x2-y2    tot
    1  0.006  0.018  0.018  0.018  0.000  0.000  0.000  0.000  0.000  0.060
    2  0.006  0.018  0.018  0.018  0.000  0.000  0.000  0.000  0.000  0.060
tot    0.011  0.037  0.037  0.037  0.000  0.000  0.000  0.000  0.000  0.121
 

 k-point     2 :    0.44444444 0.44444444 0.44444444     weight = 0.02500000

band     1 # energy   -4.06920966 # occ.  2.00000000
 
ion      s     py     pz     px    dxy    dyz    dz2    dxz  x2-y2    tot
    1  0.220  0.005  0.005  0.005  0.000  0.000  0.000  0.000  0.000  0.234
    2  0.220  0.005  0.005  0.005  0.000  0.000  0.000  0.000  0.000  0.234
tot    0.440  0.010  0.010  0.010  0.000  0.000  0.000  0.000  0.000  0.469
 
band     2 # energy   -1.01038686 # occ.  2.00000000
 
ion      s     py     pz     px    dxy    dyz    dz2    dxz  x2-y2    tot
    1  0.104  0.031  0.031  0.031  0.000  0.000  0.000  0.000  0.000  0.197
    2  0.104  0.031  0.031  0.031  0.000  0.000  0.000  0.000  0.000  0.197
tot    0.208  0.062  0.062  0.062  0.000  0.000  0.000  0.000  0.000  0.395
 
band     3 # energy    4.47856384 # occ.  2.00000000
 
ion      s     py     pz     px    dxy    dyz    dz2    dxz  x2-y2    tot
    1  0.000  0.000  0.109  0.109  0.000  0.000  0.000  0.000  0.000  0.218
    2  0.000  0.000  0.109  0.109  0.000  0.000  0.000  0.000  0.000  0.218
tot    0.000  0.000  0.218  0.218  0.000  0.000  0.000  0.000  0.000  0.436
 
band     4 # energy    4.47856385 # occ.  2.00000000
 
ion      s     py     pz     px    dxy    dyz    dz2    dxz  x2-y2    tot
    1  0.000  0.145  0.036  0.036  0.000  0.000  0.000  0.000  0.000  0.218
    2  0.000  0.145  0.036  0.036  0.000  0.000  0.000  0.000  0.000  0.218
tot    0.000  0.291  0.073  0.073  0.000  0.000  0.000  0.000  0.000  0.436
 
band     5 # energy    7.14179310 # occ.  0.00000000
 
ion      s     py     pz     px    dxy    dyz    dz2    dxz  x2-y2    tot
    1  0.185  0.007  0.007  0.007  0.000  0.000  0.000  0.000  0.000  0.208
    2  0.185  0.007  0.007  0.007  0.000  0.000  0.000  0.000  0.000  0.208
tot    0.371  0.015  0.015  0.015  0.000  0.000  0.000  0.000  0.000  0.416
 
band     6 # energy    9.02863573 # occ.  0.00000000
 
ion      s     py     pz     px    dxy    dyz    dz2    dxz  x2-y2    tot
    1  0.000  0.000  0.049  0.049  0.000  0.000  0.000  0.000  0.000  0.099
    2  0.000  0.000  0.049  0.049  0.000  0.000  0.000  0.000  0.000  0.099
tot    0.000  0.000  0.099  0.099  0.000  0.000  0.000  0.000  0.000  0.197
 
band     7 # energy    9.02863573 # occ.  0.00000000
 
ion      s     py     pz     px    dxy    dyz    dz2    dxz  x2-y2    tot
    1  0.000  0.066  0.016  0.017  0.000  0.000  0.000  0.000  0.000  0.099
    2  0.000  0.066  0.016  0.017  0.000  0.000  0.000  0.000  0.000  0.099
tot    0.000  0.132  0.033  0.033  0.000  0.000  0.000  0.000  0.000  0.197
 
band     8 # energy   13.38110491 # occ.  0.00000000
 
ion      s     py     pz     px    dxy    dyz    dz2    dxz  x2-y2    tot
    1  0.005  0.020  0.020  0.020  0.000  0.000  0.000  0.000  0.000  0.064
    2  0.005  0.020  0.020  0.020  0.000  0.000  0.000  0.000  0.000  0.064
tot    0.010  0.040  0.040  0.040  0.000  0.000  0.000  0.000  0.000  0.128
 

 k-point     3 :    0.38888889 0.38888889 0.38888889     weight = 0.02500000

band     1 # energy   -4.42974281 # occ.  2.00000000
 
ion      s     py     pz     px    dxy    dyz    dz2    dxz  x2-y2    tot
    1  0.214  0.005  0.005  0.005  0.000  0.000  0.000  0.000  0.000  0.228
    2  0.214  0.005  0.005  0.005  0.000  0.000  0.000  0.000  0.000  0.228
tot    0.428  0.010  0.010  0.010  0.000  0.000  0.000  0.000  0.000  0.457
 
band     2 # energy   -0.42478328 # occ.  2.00000000
 
ion      s     py     pz     px    dxy    dyz    dz2    dxz  x2-y2    tot
    1  0.108  0.032  0.032  0.032  0.000  0.000  0.000  0.000  0.000  0.204
    2  0.108  0.032  0.032  0.032  0.000  0.000  0.000  0.000  0.000  0.204
tot    0.216  0.064  0.064  0.064  0.000  0.000  0.000  0.000  0.000  0.408
 
band     3 # energy    4.54505224 # occ.  2.00000000
 
ion      s     py     pz     px    dxy    dyz    dz2    dxz  x2-y2    tot
    1  0.000  0.000  0.109  0.109  0.000  0.000  0.000  0.000  0.000  0.217
    2  0.000  0.000  0.109  0.109  0.000  0.000  0.000  0.000  0.000  0.217
tot    0.000  0.000  0.217  0.217  0.000  0.000  0.000  0.000  0.000  0.435
 
band     4 # energy    4.54505224 # occ.  2.00000000
 
ion      s     py     pz     px    dxy    dyz    dz2    dxz  x2-y2    tot
    1  0.000  0.145  0.036  0.036  0.000  0.000  0.000  0.000  0.000  0.217
    2  0.000  0.145  0.036  0.036  0.000  0.000  0.000  0.000  0.000  0.217
tot    0.000  0.290  0.072  0.072  0.000  0.000  0.000  0.000  0.000  0.435
 
band     5 # energy    7.21781397 # occ.  0.00000000
 
ion      s     py     pz     px    dxy    dyz    dz2    dxz  x2-y2    tot
    1  0.181  0.009  0.009  0.009  0.000  0.000  0.000  0.000  0.000  0.208
    2  0.181  0.009  0.009  0.009  0.000  0.000  0.000  0.000  0.000  0.208
tot    0.362  0.018  0.018  0.018  0.000  0.000  0.000  0.000  0.000  0.415
 
band     6 # energy    9.08877290 # occ.  0.00000000
 
ion      s     py     pz     px    dxy    dyz    dz2    dxz  x2-y2    tot
    1  0.000  0.000  0.053  0.053  0.000  0.000  0.000  0.000  0.000  0.106
    2  0.000  0.000  0.053  0.053  0.000  0.000  0.000  0.000  0.000  0.106
tot    0.000  0.000  0.106  0.106  0.000  0.000  0.000  0.000  0.000  0.211
 
band     7 # energy    9.08877290 # occ.  0.00000000
 
ion      s     py     pz     px    dxy    dyz    dz2    dxz  x2-y2    tot
    1  0.000  0.070  0.018  0.018  0.000  0.000  0.000  0.000  0.000  0.106
    2  0.000  0.070  0.018  0.018  0.000  0.000  0.000  0.000  0.000  0.106
tot    0.000  0.141  0.035  0.035  0.000  0.000  0.000  0.000  0.000  0.211
 
band     8 # energy   13.46500704 # occ.  0.00000000
 
ion      s     py     pz     px    dxy    dyz    dz2    dxz  x2-y2    tot
    1  0.004  0.026  0.026  0.026  0.000  0.000  0.000  0.000  0.000  0.082
    2  0.004  0.026  0.026  0.026  0.000  0.000  0.000  0.000  0.000  0.082
tot    0.007  0.052  0.052  0.052  0.000  0.000  0.000  0.000  0.000  0.164
 

 k-point     4 :    0.33333333 0.33333333 0.33333333     weight = 0.02500000

band     1 # energy   -4.84184324 # occ.  2.00000000
 
ion      s     py     pz     px    dxy    dyz    dz2    dxz  x2-y2    tot
    1  0.211  0.004  0.004  0.004  0.000  0.000  0.000  0.000  0.000  0.223
    2  0.211  0.004  0.004  0.004  0.000  0.000  0.000  0.000  0.000  0.223
tot    0.422  0.008  0.008  0.008  0.000  0.000  0.000  0.000  0.000  0.447
 
band     2 # energy    0.35906311 # occ.  2.00000000
 
ion      s     py     pz     px    dxy    dyz    dz2    dxz  x2-y2    tot
    1  0.107  0.034  0.034  0.034  0.000  0.000  0.000  0.000  0.000  0.210
    2  0.107  0.034  0.034  0.034  0.000  0.000  0.000  0.000  0.000  0.210
tot    0.214  0.069  0.069  0.069  0.000  0.000  0.000  0.000  0.000  0.419
 
band     3 # energy    4.65412074 # occ.  2.00000000
 
ion      s     py     pz     px    dxy    dyz    dz2    dxz  x2-y2    tot
    1  0.000  0.000  0.108  0.108  0.000  0.000  0.000  0.000  0.000  0.216
    2  0.000  0.000  0.108  0.108  0.000  0.000  0.000  0.000  0.000  0.216
tot    0.000  0.000  0.216  0.216  0.000  0.000  0.000  0.000  0.000  0.432
 
band     4 # energy    4.65412074 # occ.  2.00000000
 
ion      s     py     pz     px    dxy    dyz    dz2    dxz  x2-y2    tot
    1  0.000  0.144  0.036  0.036  0.000  0.000  0.000  0.000  0.000  0.216
    2  0.000  0.144  0.036  0.036  0.000  0.000  0.000  0.000  0.000  0.216
tot    0.000  0.288  0.072  0.072  0.000  0.000  0.000  0.000  0.000  0.432
 
band     5 # energy    7.34331473 # occ.  0.00000000
 
ion      s     py     pz     px    dxy    dyz    dz2    dxz  x2-y2    tot
    1  0.174  0.011  0.011  0.011  0.000  0.000  0.000  0.000  0.000  0.207
    2  0.174  0.011  0.011  0.011  0.000  0.000  0.000  0.000  0.000  0.207
tot    0.348  0.022  0.022  0.022  0.000  0.000  0.000  0.000  0.000  0.414
 
band     6 # energy    9.15656805 # occ.  0.00000000
 
ion      s     py     pz     px    dxy    dyz    dz2    dxz  x2-y2    tot
    1  0.000  0.000  0.059  0.059  0.000  0.000  0.000  0.000  0.000  0.117
    2  0.000  0.000  0.059  0.059  0.000  0.000  0.000  0.000  0.000  0.117
tot    0.000  0.000  0.117  0.117  0.000  0.000  0.000  0.000  0.000  0.234
 
band     7 # energy    9.15656805 # occ.  0.00000000
 
ion      s     py     pz     px    dxy    dyz    dz2    dxz  x2-y2    tot
    1  0.000  0.078  0.020  0.019  0.000  0.000  0.000  0.000  0.000  0.117
    2  0.000  0.078  0.020  0.019  0.000  0.000  0.000  0.000  0.000  0.117
tot    0.000  0.156  0.039  0.039  0.000  0.000  0.000  0.000  0.000  0.234
 
band     8 # energy   13.43102349 # occ.  0.00000000
 
ion      s     py     pz     px    dxy    dyz    dz2    dxz  x2-y2    tot
    1  0.020  0.045  0.045  0.043  0.000  0.000  0.000  0.000  0.000  0.152
    2  0.020  0.044  0.043  0.046  0.000  0.000  0.000  0.000  0.000  0.154
tot    0.040  0.089  0.088  0.089  0.000  0.000  0.000  0.000  0.000  0.306
 

 k-point     5 :    0.27777778 0.27777778 0.27777778     weight = 0.02500000

band     1 # energy   -5.23180884 # occ.  2.00000000
 
ion      s     py     pz     px    dxy    dyz    dz2    dxz  x2-y2    tot
    1  0.210  0.003  0.003  0.003  0.000  0.000  0.000  0.000  0.000  0.220
    2  0.210  0.003  0.003  0.003  0.000  0.000  0.000  0.000  0.000  0.220
tot    0.421  0.006  0.006  0.006  0.000  0.000  0.000  0.000  0.000  0.440
 
band     2 # energy    1.26186063 # occ.  2.00000000
 
ion      s     py     pz     px    dxy    dyz    dz2    dxz  x2-y2    tot
    1  0.101  0.038  0.038  0.038  0.000  0.000  0.000  0.000  0.000  0.214
    2  0.101  0.038  0.038  0.038  0.000  0.000  0.000  0.000  0.000  0.214
tot    0.203  0.075  0.075  0.075  0.000  0.000  0.000  0.000  0.000  0.428
 
band     3 # energy    4.80401805 # occ.  2.00000000
 
ion      s     py     pz     px    dxy    dyz    dz2    dxz  x2-y2    tot
    1  0.000  0.000  0.107  0.107  0.000  0.000  0.000  0.000  0.000  0.215
    2  0.000  0.000  0.107  0.107  0.000  0.000  0.000  0.000  0.000  0.215
tot    0.000  0.000  0.215  0.215  0.000  0.000  0.000  0.000  0.000  0.430
 
band     4 # energy    4.80401805 # occ.  2.00000000
 
ion      s     py     pz     px    dxy    dyz    dz2    dxz  x2-y2    tot
    1  0.000  0.143  0.036  0.036  0.000  0.000  0.000  0.000  0.000  0.215
    2  0.000  0.143  0.036  0.036  0.000  0.000  0.000  0.000  0.000  0.215
tot    0.000  0.286  0.072  0.072  0.000  0.000  0.000  0.000  0.000  0.430
 
band     5 # energy    7.50995510 # occ.  0.00000000
 
ion      s     py     pz     px    dxy    dyz    dz2    dxz  x2-y2    tot
    1  0.164  0.014  0.014  0.014  0.000  0.000  0.000  0.000  0.000  0.207
    2  0.164  0.014  0.014  0.014  0.000  0.000  0.000  0.000  0.000  0.207
tot    0.328  0.029  0.029  0.029  0.000  0.000  0.000  0.000  0.000  0.414
 
band     6 # energy    9.17366625 # occ.  0.00000000
 
ion      s     py     pz     px    dxy    dyz    dz2    dxz  x2-y2    tot
    1  0.000  0.000  0.067  0.066  0.000  0.000  0.000  0.000  0.000  0.133
    2  0.000  0.000  0.067  0.066  0.000  0.000  0.000  0.000  0.000  0.133
tot    0.000  0.000  0.134  0.132  0.000  0.000  0.000  0.000  0.000  0.266
 
band     7 # energy    9.17366626 # occ.  0.00000000
 
ion      s     py     pz     px    dxy    dyz    dz2    dxz  x2-y2    tot
    1  0.000  0.089  0.022  0.022  0.000  0.000  0.000  0.000  0.000  0.133
    2  0.000  0.089  0.022  0.022  0.000  0.000  0.000  0.000  0.000  0.133
tot    0.000  0.177  0.044  0.045  0.000  0.000  0.000  0.000  0.000  0.266
 
band     8 # energy   12.84958385 # occ.  0.00000000
 
ion      s     py     pz     px    dxy    dyz    dz2    dxz  x2-y2    tot
    1  0.086  0.052  0.055  0.055  0.000  0.000  0.000  0.000  0.000  0.249
    2  0.085  0.056  0.052  0.051  0.000  0.000  0.000  0.000  0.000  0.244
tot    0.172  0.108  0.107  0.106  0.000  0.000  0.000  0.000  0.000  0.493
 

 k-point     6 :    0.22222222 0.22222222 0.22222222     weight = 0.02500000

band     1 # energy   -5.56864332 # occ.  2.00000000
 
ion      s     py     pz     px    dxy    dyz    dz2    dxz  x2-y2    tot
    1  0.211  0.002  0.002  0.002  0.000  0.000  0.000  0.000  0.000  0.217
    2  0.211  0.002  0.002  0.002  0.000  0.000  0.000  0.000  0.000  0.217
tot    0.422  0.004  0.004  0.004  0.000  0.000  0.000  0.000  0.000  0.435
 
band     2 # energy    2.24479762 # occ.  2.00000000
 
ion      s     py     pz     px    dxy    dyz    dz2    dxz  x2-y2    tot
    1  0.092  0.042  0.042  0.042  0.000  0.000  0.000  0.000  0.000  0.218
    2  0.092  0.042  0.042  0.042  0.000  0.000  0.000  0.000  0.000  0.218
tot    0.185  0.084  0.084  0.084  0.000  0.000  0.000  0.000  0.000  0.436
 
band     3 # energy    4.98962431 # occ.  2.00000000
 
ion      s     py     pz     px    dxy    dyz    dz2    dxz  x2-y2    tot
    1  0.000  0.000  0.107  0.107  0.000  0.000  0.000  0.000  0.000  0.214
    2  0.000  0.000  0.107  0.107  0.000  0.000  0.000  0.000  0.000  0.214
tot    0.000  0.000  0.214  0.214  0.000  0.000  0.000  0.000  0.000  0.428
 
band     4 # energy    4.98962432 # occ.  2.00000000
 
ion      s     py     pz     px    dxy    dyz    dz2    dxz  x2-y2    tot
    1  0.000  0.143  0.036  0.036  0.000  0.000  0.000  0.000  0.000  0.214
    2  0.000  0.143  0.036  0.036  0.000  0.000  0.000  0.000  0.000  0.214
tot    0.000  0.285  0.071  0.071  0.000  0.000  0.000  0.000  0.000  0.428
 
band     5 # energy    7.71251235 # occ.  0.00000000
 
ion      s     py     pz     px    dxy    dyz    dz2    dxz  x2-y2    tot
    1  0.150  0.019  0.019  0.019  0.000  0.000  0.000  0.000  0.000  0.206
    2  0.150  0.019  0.019  0.019  0.000  0.000  0.000  0.000  0.000  0.206
tot    0.301  0.037  0.037  0.037  0.000  0.000  0.000  0.000  0.000  0.413
 
band     6 # energy    9.07366499 # occ.  0.00000000
 
ion      s     py     pz     px    dxy    dyz    dz2    dxz  x2-y2    tot
    1  0.000  0.006  0.050  0.091  0.000  0.000  0.000  0.000  0.000  0.148
    2  0.000  0.006  0.050  0.091  0.000  0.000  0.000  0.000  0.000  0.148
tot    0.000  0.013  0.100  0.183  0.000  0.000  0.000  0.000  0.000  0.296
 
band     7 # energy    9.07366499 # occ.  0.00000000
 
ion      s     py     pz     px    dxy    dyz    dz2    dxz  x2-y2    tot
    1  0.000  0.092  0.048  0.007  0.000  0.000  0.000  0.000  0.000  0.148
    2  0.000  0.092  0.048  0.007  0.000  0.000  0.000  0.000  0.000  0.148
tot    0.000  0.184  0.097  0.014  0.000  0.000  0.000  0.000  0.000  0.296
 
band     8 # energy   11.92474484 # occ.  0.00000000
 
ion      s     py     pz     px    dxy    dyz    dz2    dxz  x2-y2    tot
    1  0.130  0.048  0.047  0.048  0.000  0.000  0.000  0.000  0.000  0.273
    2  0.130  0.047  0.048  0.047  0.000  0.000  0.000  0.000  0.000  0.273
tot    0.260  0.095  0.095  0.095  0.000  0.000  0.000  0.000  0.000  0.546
 

 k-point     7 :    0.16666667 0.16666667 0.16666667     weight = 0.02500000

band     1 # energy   -5.83879955 # occ.  2.00000000
 
ion      s     py     pz     px    dxy    dyz    dz2    dxz  x2-y2    tot
    1  0.212  0.001  0.001  0.001  0.000  0.000  0.000  0.000  0.000  0.215
    2  0.212  0.001  0.001  0.001  0.000  0.000  0.000  0.000  0.000  0.215
tot    0.423  0.003  0.003  0.003  0.000  0.000  0.000  0.000  0.000  0.431
 
band     2 # energy    3.27236375 # occ.  2.00000000
 
ion      s     py     pz     px    dxy    dyz    dz2    dxz  x2-y2    tot
    1  0.079  0.047  0.047  0.047  0.000  0.000  0.000  0.000  0.000  0.220
    2  0.079  0.047  0.047  0.047  0.000  0.000  0.000  0.000  0.000  0.220
tot    0.157  0.094  0.094  0.094  0.000  0.000  0.000  0.000  0.000  0.441
 
band     3 # energy    5.19849516 # occ.  2.00000000
 
ion      s     py     pz     px    dxy    dyz    dz2    dxz  x2-y2    tot
    1  0.000  0.000  0.107  0.107  0.000  0.000  0.000  0.000  0.000  0.213
    2  0.000  0.000  0.107  0.107  0.000  0.000  0.000  0.000  0.000  0.213
tot    0.000  0.000  0.213  0.213  0.000  0.000  0.000  0.000  0.000  0.427
 
band     4 # energy    5.19849517 # occ.  2.00000000
 
ion      s     py     pz     px    dxy    dyz    dz2    dxz  x2-y2    tot
    1  0.000  0.142  0.036  0.036  0.000  0.000  0.000  0.000  0.000  0.213
    2  0.000  0.142  0.036  0.036  0.000  0.000  0.000  0.000  0.000  0.213
tot    0.000  0.285  0.071  0.071  0.000  0.000  0.000  0.000  0.000  0.427
 
band     5 # energy    7.93314044 # occ.  0.00000000
 
ion      s     py     pz     px    dxy    dyz    dz2    dxz  x2-y2    tot
    1  0.132  0.024  0.024  0.024  0.000  0.000  0.000  0.000  0.000  0.205
    2  0.132  0.024  0.024  0.024  0.000  0.000  0.000  0.000  0.000  0.205
tot    0.263  0.049  0.049  0.049  0.000  0.000  0.000  0.000  0.000  0.409
 
band     6 # energy    8.84056117 # occ.  0.00000000
 
ion      s     py     pz     px    dxy    dyz    dz2    dxz  x2-y2    tot
    1  0.000  0.005  0.063  0.088  0.000  0.000  0.000  0.000  0.000  0.155
    2  0.000  0.005  0.063  0.088  0.000  0.000  0.000  0.000  0.000  0.155
tot    0.000  0.010  0.125  0.176  0.000  0.000  0.000  0.000  0.000  0.311
 
band     7 # energy    8.84056118 # occ.  0.00000000
 
ion      s     py     pz     px    dxy    dyz    dz2    dxz  x2-y2    tot
    1  0.000  0.099  0.041  0.016  0.000  0.000  0.000  0.000  0.000  0.155
    2  0.000  0.099  0.041  0.016  0.000  0.000  0.000  0.000  0.000  0.155
tot    0.000  0.198  0.082  0.031  0.000  0.000  0.000  0.000  0.000  0.311
 
band     8 # energy   10.93010018 # occ.  0.00000000
 
ion      s     py     pz     px    dxy    dyz    dz2    dxz  x2-y2    tot
    1  0.165  0.040  0.040  0.040  0.000  0.000  0.000  0.000  0.000  0.286
    2  0.165  0.040  0.040  0.040  0.000  0.000  0.000  0.000  0.000  0.286
tot    0.330  0.081  0.081  0.081  0.000  0.000  0.000  0.000  0.000  0.573
 

 k-point     8 :    0.11111111 0.11111111 0.11111111     weight = 0.02500000

band     1 # energy   -6.03511416 # occ.  2.00000000
 
ion      s     py     pz     px    dxy    dyz    dz2    dxz  x2-y2    tot
    1  0.213  0.001  0.001  0.001  0.000  0.000  0.000  0.000  0.000  0.214
    2  0.213  0.001  0.001  0.001  0.000  0.000  0.000  0.000  0.000  0.214
tot    0.425  0.001  0.001  0.001  0.000  0.000  0.000  0.000  0.000  0.428
 
band     2 # energy    4.29951650 # occ.  2.00000000
 
ion      s     py     pz     px    dxy    dyz    dz2    dxz  x2-y2    tot
    1  0.058  0.054  0.054  0.054  0.000  0.000  0.000  0.000  0.000  0.222
    2  0.058  0.054  0.054  0.054  0.000  0.000  0.000  0.000  0.000  0.222
tot    0.117  0.109  0.109  0.109  0.000  0.000  0.000  0.000  0.000  0.443
 
band     3 # energy    5.40854771 # occ.  2.00000000
 
ion      s     py     pz     px    dxy    dyz    dz2    dxz  x2-y2    tot
    1  0.000  0.001  0.098  0.116  0.000  0.000  0.000  0.000  0.000  0.214
    2  0.000  0.001  0.098  0.116  0.000  0.000  0.000  0.000  0.000  0.214
tot    0.000  0.002  0.195  0.232  0.000  0.000  0.000  0.000  0.000  0.429
 
band     4 # energy    5.40854771 # occ.  2.00000000
 
ion      s     py     pz     px    dxy    dyz    dz2    dxz  x2-y2    tot
    1  0.000  0.142  0.045  0.027  0.000  0.000  0.000  0.000  0.000  0.214
    2  0.000  0.142  0.045  0.027  0.000  0.000  0.000  0.000  0.000  0.214
tot    0.000  0.284  0.091  0.054  0.000  0.000  0.000  0.000  0.000  0.429
 
band     5 # energy    8.13707492 # occ.  0.00000000
 
ion      s     py     pz     px    dxy    dyz    dz2    dxz  x2-y2    tot
    1  0.102  0.032  0.032  0.032  0.000  0.000  0.000  0.000  0.000  0.198
    2  0.102  0.032  0.032  0.032  0.000  0.000  0.000  0.000  0.000  0.198
tot    0.203  0.064  0.064  0.064  0.000  0.000  0.000  0.000  0.000  0.395
 
band     6 # energy    8.54668887 # occ.  0.00000000
 
ion      s     py     pz     px    dxy    dyz    dz2    dxz  x2-y2    tot
    1  0.000  0.073  0.067  0.017  0.000  0.000  0.000  0.000  0.000  0.156
    2  0.000  0.073  0.067  0.017  0.000  0.000  0.000  0.000  0.000  0.156
tot    0.000  0.146  0.133  0.034  0.000  0.000  0.000  0.000  0.000  0.313
 
band     7 # energy    8.54668896 # occ.  0.00000000
 
ion      s     py     pz     px    dxy    dyz    dz2    dxz  x2-y2    tot
    1  0.000  0.031  0.038  0.087  0.000  0.000  0.000  0.000  0.000  0.156
    2  0.000  0.031  0.038  0.087  0.000  0.000  0.000  0.000  0.000  0.156
tot    0.000  0.062  0.075  0.175  0.000  0.000  0.000  0.000  0.000  0.313
 
band     8 # energy    9.94264910 # occ.  0.00000000
 
ion      s     py     pz     px    dxy    dyz    dz2    dxz  x2-y2    tot
    1  0.211  0.030  0.030  0.030  0.000  0.000  0.000  0.000  0.000  0.302
    2  0.211  0.030  0.030  0.030  0.000  0.000  0.000  0.000  0.000  0.302
tot    0.422  0.061  0.061  0.061  0.000  0.000  0.000  0.000  0.000  0.604
 

 k-point     9 :    0.05555556 0.05555556 0.05555556     weight = 0.02500000

band     1 # energy   -6.15403190 # occ.  2.00000000
 
ion      s     py     pz     px    dxy    dyz    dz2    dxz  x2-y2    tot
    1  0.213  0.000  0.000  0.000  0.000  0.000  0.000  0.000  0.000  0.214
    2  0.213  0.000  0.000  0.000  0.000  0.000  0.000  0.000  0.000  0.214
tot    0.426  0.000  0.000  0.000  0.000  0.000  0.000  0.000  0.000  0.427
 
band     2 # energy    5.20955245 # occ.  2.00000000
 
ion      s     py     pz     px    dxy    dyz    dz2    dxz  x2-y2    tot
    1  0.027  0.065  0.065  0.065  0.000  0.000  0.000  0.000  0.000  0.221
    2  0.027  0.065  0.065  0.065  0.000  0.000  0.000  0.000  0.000  0.221
tot    0.053  0.129  0.129  0.129  0.000  0.000  0.000  0.000  0.000  0.441
 
band     3 # energy    5.57708232 # occ.  1.99999997
 
ion      s     py     pz     px    dxy    dyz    dz2    dxz  x2-y2    tot
    1  0.000  0.137  0.013  0.066  0.000  0.000  0.000  0.000  0.000  0.216
    2  0.000  0.137  0.013  0.066  0.000  0.000  0.000  0.000  0.000  0.216
tot    0.000  0.275  0.026  0.133  0.000  0.000  0.000  0.000  0.000  0.433
 
band     4 # energy    5.57708257 # occ.  1.99999997
 
ion      s     py     pz     px    dxy    dyz    dz2    dxz  x2-y2    tot
    1  0.000  0.007  0.131  0.078  0.000  0.000  0.000  0.000  0.000  0.216
    2  0.000  0.007  0.131  0.078  0.000  0.000  0.000  0.000  0.000  0.216
tot    0.000  0.014  0.263  0.156  0.000  0.000  0.000  0.000  0.000  0.433
 
band     5 # energy    8.24806732 # occ.  0.00000000
 
ion      s     py     pz     px    dxy    dyz    dz2    dxz  x2-y2    tot
    1  0.039  0.044  0.044  0.044  0.000  0.000  0.000  0.000  0.000  0.172
    2  0.039  0.044  0.044  0.044  0.000  0.000  0.000  0.000  0.000  0.172
tot    0.078  0.089  0.089  0.089  0.000  0.000  0.000  0.000  0.000  0.344
 
band     6 # energy    8.30066502 # occ.  0.00000000
 
ion      s     py     pz     px    dxy    dyz    dz2    dxz  x2-y2    tot
    1  0.000  0.091  0.006  0.057  0.000  0.000  0.000  0.000  0.000  0.154
    2  0.000  0.091  0.006  0.057  0.000  0.000  0.000  0.000  0.000  0.154
tot    0.000  0.183  0.011  0.115  0.000  0.000  0.000  0.000  0.000  0.309
 
band     7 # energy    8.30070431 # occ.  0.00000000
 
ion      s     py     pz     px    dxy    dyz    dz2    dxz  x2-y2    tot
    1  0.000  0.012  0.097  0.045  0.000  0.000  0.000  0.000  0.000  0.154
    2  0.000  0.012  0.097  0.045  0.000  0.000  0.000  0.000  0.000  0.154
tot    0.000  0.023  0.195  0.091  0.000  0.000  0.000  0.000  0.000  0.309
 
band     8 # energy    9.10429221 # occ.  0.00000000
 
ion      s     py     pz     px    dxy    dyz    dz2    dxz  x2-y2    tot
    1  0.298  0.013  0.013  0.013  0.000  0.000  0.000  0.000  0.000  0.336
    2  0.298  0.013  0.013  0.013  0.000  0.000  0.000  0.000  0.000  0.336
tot    0.596  0.025  0.025  0.025  0.000  0.000  0.000  0.000  0.000  0.673
 

 k-point    10 :    0.00000000 0.00000000 0.00000000     weight = 0.02500000

band     1 # energy   -6.19385012 # occ.  2.00000000
 
ion      s     py     pz     px    dxy    dyz    dz2    dxz  x2-y2    tot
    1  0.213  0.000  0.000  0.000  0.000  0.000  0.000  0.000  0.000  0.213
    2  0.213  0.000  0.000  0.000  0.000  0.000  0.000  0.000  0.000  0.213
tot    0.427  0.000  0.000  0.000  0.000  0.000  0.000  0.000  0.000  0.427
 
band     2 # energy    5.64344381 # occ.  1.99999596
 
ion      s     py     pz     px    dxy    dyz    dz2    dxz  x2-y2    tot
    1  0.000  0.072  0.072  0.072  0.000  0.000  0.000  0.000  0.000  0.217
    2  0.000  0.072  0.072  0.072  0.000  0.000  0.000  0.000  0.000  0.217
tot    0.000  0.145  0.145  0.145  0.000  0.000  0.000  0.000  0.000  0.435
 
band     3 # energy    5.64346019 # occ.  1.99999595
 
ion      s     py     pz     px    dxy    dyz    dz2    dxz  x2-y2    tot
    1  0.000  0.006  0.081  0.130  0.000  0.000  0.000  0.000  0.000  0.217
    2  0.000  0.006  0.081  0.130  0.000  0.000  0.000  0.000  0.000  0.217
tot    0.000  0.012  0.163  0.260  0.000  0.000  0.000  0.000  0.000  0.435
 
band     4 # energy    5.64346019 # occ.  1.99999595
 
ion      s     py     pz     px    dxy    dyz    dz2    dxz  x2-y2    tot
    1  0.000  0.139  0.064  0.015  0.000  0.000  0.000  0.000  0.000  0.217
    2  0.000  0.139  0.064  0.015  0.000  0.000  0.000  0.000  0.000  0.217
tot    0.000  0.278  0.127  0.029  0.000  0.000  0.000  0.000  0.000  0.435
 
band     5 # energy    8.20328294 # occ.  0.00000000
 
ion      s     py     pz     px    dxy    dyz    dz2    dxz  x2-y2    tot
    1  0.000  0.051  0.051  0.051  0.000  0.000  0.000  0.000  0.000  0.153
    2  0.000  0.051  0.051  0.051  0.000  0.000  0.000  0.000  0.000  0.153
tot    0.000  0.101  0.103  0.102  0.000  0.000  0.000  0.000  0.000  0.306
 
band     6 # energy    8.20329954 # occ.  0.00000000
 
ion      s     py     pz     px    dxy    dyz    dz2    dxz  x2-y2    tot
    1  0.000  0.036  0.017  0.101  0.000  0.000  0.000  0.000  0.000  0.153
    2  0.000  0.036  0.017  0.101  0.000  0.000  0.000  0.000  0.000  0.153
tot    0.000  0.071  0.033  0.202  0.000  0.000  0.000  0.000  0.000  0.306
 
band     7 # energy    8.20329979 # occ.  0.00000000
 
ion      s     py     pz     px    dxy    dyz    dz2    dxz  x2-y2    tot
    1  0.000  0.067  0.085  0.001  0.000  0.000  0.000  0.000  0.000  0.153
    2  0.000  0.067  0.085  0.001  0.000  0.000  0.000  0.000  0.000  0.153
tot    0.000  0.133  0.170  0.003  0.000  0.000  0.000  0.000  0.000  0.306
 
band     8 # energy    8.78357949 # occ.  0.00000000
 
ion      s     py     pz     px    dxy    dyz    dz2    dxz  x2-y2    tot
    1  0.361  0.000  0.000  0.000  0.000  0.000  0.000  0.000  0.000  0.361
    2  0.361  0.000  0.000  0.000  0.000  0.000  0.000  0.000  0.000  0.361
tot    0.722  0.000  0.000  0.000  0.000  0.000  0.000  0.000  0.000  0.722
 

 k-point    11 :    0.00000000 0.00000000 0.00000000     weight = 0.02500000

band     1 # energy   -6.19385012 # occ.  2.00000000
 
ion      s     py     pz     px    dxy    dyz    dz2    dxz  x2-y2    tot
    1  0.213  0.000  0.000  0.000  0.000  0.000  0.000  0.000  0.000  0.213
    2  0.213  0.000  0.000  0.000  0.000  0.000  0.000  0.000  0.000  0.213