<?xml version="1.0" encoding="ISO-8859-1"?>
<modeling>
 <generator>
  <i name="program" type="string">vasp </i>
  <i name="version" type="string">5.4.4.18Apr17-6-g9f103f2a35  </i>
  <i name="subversion" type="string">(build Sep 11 2019 23:05:26) complex            parallel </i>
  <i name="platform" type="string">intel-19.0.0.117-static </i>
  <i name="date" type="string">2020 06 03 </i>
  <i name="time" type="string">13:32:54 </i>
 </generator>
 <incar>
  <i type="string" name="SYSTEM"> fcc Si</i>
  <i type="int" name="ISTART">     0</i>
  <i type="string" name="PREC">normal</i>
  <i type="int" name="ICHARG">    11</i>
  <i name="ENCUT">    250.00000000</i>
  <i type="int" name="ISMEAR">     0</i>
  <i name="SIGMA">      0.10000000</i>
  <i type="int" name="LORBIT">    11</i>
  <v type="int" name="KPOINT_BSE">    -1     0     0     0</v>
 </incar>
 <structure name="primitive_cell" >
  <crystal>
   <varray name="basis" >
    <v>       2.73292696       2.73292696       0.00000000 </v>
    <v>       0.00000000       2.73292696       2.73292696 </v>
    <v>       2.73292696       0.00000000       2.73292696 </v>
   </varray>
   <i name="volume">     40.82386028 </i>
   <varray name="rec_basis" >
    <v>       0.18295403       0.18295403      -0.18295403 </v>
    <v>      -0.18295403       0.18295403       0.18295403 </v>
    <v>       0.18295403      -0.18295403       0.18295403 </v>
   </varray>
  </crystal>
  <varray name="positions" >
   <v>       0.00000000       0.00000000       0.00000000 </v>
   <v>       0.25000000       0.25000000       0.25000000 </v>
  </varray>
 </structure>
 <varray name="primitive_index" >
  <v type="int" >        1 </v>
  <v type="int" >        2 </v>
 </varray>
 <kpoints>
  <generation param="listgenerated">
   <i name="divisions" type="int">      10 </i>
   <v>       0.50000000       0.50000000       0.50000000 </v>
   <v>       0.00000000       0.00000000       0.00000000 </v>
   <v>       0.00000000       0.50000000       0.50000000 </v>
   <v>       0.37500000       0.75000000       0.37500000 </v>
   <v>       0.00000000       0.00000000       0.00000000 </v>
  </generation>
  <varray name="kpointlist" >
   <v>       0.50000000       0.50000000       0.50000000 </v>
   <v>       0.44444444       0.44444444       0.44444444 </v>
   <v>       0.38888889       0.38888889       0.38888889 </v>
   <v>       0.33333333       0.33333333       0.33333333 </v>
   <v>       0.27777778       0.27777778       0.27777778 </v>
   <v>       0.22222222       0.22222222       0.22222222 </v>
   <v>       0.16666667       0.16666667       0.16666667 </v>
   <v>       0.11111111       0.11111111       0.11111111 </v>
   <v>       0.05555556       0.05555556       0.05555556 </v>
   <v>       0.00000000       0.00000000       0.00000000 </v>
   <v>       0.00000000       0.00000000       0.00000000 </v>
   <v>       0.00000000       0.05555556       0.05555556 </v>
   <v>       0.00000000       0.11111111       0.11111111 </v>
   <v>       0.00000000       0.16666667       0.16666667 </v>
   <v>       0.00000000       0.22222222       0.22222222 </v>
   <v>       0.00000000       0.27777778       0.27777778 </v>
   <v>       0.00000000       0.33333333       0.33333333 </v>
   <v>       0.00000000       0.38888889       0.38888889 </v>
   <v>       0.00000000       0.44444444       0.44444444 </v>
   <v>       0.00000000       0.50000000       0.50000000 </v>
   <v>       0.00000000       0.50000000       0.50000000 </v>
   <v>       0.02777778       0.51388889       0.51388889 </v>
   <v>       0.05555556       0.52777778       0.52777778 </v>
   <v>       0.08333333       0.54166667       0.54166667 </v>
   <v>       0.11111111       0.55555556       0.55555556 </v>
   <v>       0.13888889       0.56944444       0.56944444 </v>
   <v>       0.16666667       0.58333333       0.58333333 </v>
   <v>       0.19444444       0.59722222       0.59722222 </v>
   <v>       0.22222222       0.61111111       0.61111111 </v>
   <v>       0.25000000       0.62500000       0.62500000 </v>
   <v>       0.37500000       0.75000000       0.37500000 </v>
   <v>       0.33333333       0.66666667       0.33333333 </v>
   <v>       0.29166667       0.58333333       0.29166667 </v>
   <v>       0.25000000       0.50000000       0.25000000 </v>
   <v>       0.20833333       0.41666667       0.20833333 </v>
   <v>       0.16666667       0.33333333       0.16666667 </v>
   <v>       0.12500000       0.25000000       0.12500000 </v>
   <v>       0.08333333       0.16666667       0.08333333 </v>
   <v>       0.04166667       0.08333333       0.04166667 </v>
   <v>       0.00000000       0.00000000       0.00000000 </v>
  </varray>
  <varray name="weights" >
   <v>       0.02500000 </v>
   <v>       0.02500000 </v>
   <v>       0.02500000 </v>
   <v>       0.02500000 </v>
   <v>       0.02500000 </v>
   <v>       0.02500000 </v>
   <v>       0.02500000 </v>
   <v>       0.02500000 </v>
   <v>       0.02500000 </v>
   <v>       0.02500000 </v>
   <v>       0.02500000 </v>
   <v>       0.02500000 </v>
   <v>       0.02500000 </v>
   <v>       0.02500000 </v>
   <v>       0.02500000 </v>
   <v>       0.02500000 </v>
   <v>       0.02500000 </v>
   <v>       0.02500000 </v>
   <v>       0.02500000 </v>
   <v>       0.02500000 </v>
   <v>       0.02500000 </v>
   <v>       0.02500000 </v>
   <v>       0.02500000 </v>
   <v>       0.02500000 </v>
   <v>       0.02500000 </v>
   <v>       0.02500000 </v>
   <v>       0.02500000 </v>
   <v>       0.02500000 </v>
   <v>       0.02500000 </v>
   <v>       0.02500000 </v>
   <v>       0.02500000 </v>
   <v>       0.02500000 </v>
   <v>       0.02500000 </v>
   <v>       0.02500000 </v>
   <v>       0.02500000 </v>
   <v>       0.02500000 </v>
   <v>       0.02500000 </v>
   <v>       0.02500000 </v>
   <v>       0.02500000 </v>
   <v>       0.02500000 </v>
  </varray>
 </kpoints>
 <parameters>
  <separator name="general" >
   <i type="string" name="SYSTEM">fcc Si</i>
   <i type="logical" name="LCOMPAT"> F  </i>
  </separator>
  <separator name="electronic" >
   <i type="string" name="PREC">normal</i>
   <i name="ENMAX">    250.00000000</i>
   <i name="ENAUG">    322.06900000</i>
   <i name="EDIFF">      0.00010000</i>
   <i type="int" name="IALGO">    38</i>
   <i type="int" name="IWAVPR">    10</i>
   <i type="int" name="NBANDS">     8</i>
   <i name="NELECT">      8.00000000</i>
   <i type="int" name="TURBO">     0</i>
   <i type="int" name="IRESTART">     0</i>
   <i type="int" name="NREBOOT">     0</i>
   <i type="int" name="NMIN">     0</i>
   <i name="EREF">      0.00000000</i>
   <separator name="electronic smearing" >
    <i type="int" name="ISMEAR">     0</i>
    <i name="SIGMA">      0.10000000</i>
    <i name="KSPACING">      0.50000000</i>
    <i type="logical" name="KGAMMA"> T  </i>
   </separator>
   <separator name="electronic projectors" >
    <i type="logical" name="LREAL"> F  </i>
    <v name="ROPT">      0.00000000</v>
    <i type="int" name="LMAXPAW">  -100</i>
    <i type="int" name="LMAXMIX">     2</i>
    <i type="logical" name="NLSPLINE"> F  </i>
   </separator>
   <separator name="electronic startup" >
    <i type="int" name="ISTART">     0</i>
    <i type="int" name="ICHARG">    11</i>
    <i type="int" name="INIWAV">     1</i>
   </separator>
   <separator name="electronic spin" >
    <i type="int" name="ISPIN">     1</i>
    <i type="logical" name="LNONCOLLINEAR"> F  </i>
    <v name="MAGMOM">      1.00000000      1.00000000</v>
    <i name="NUPDOWN">     -1.00000000</i>
    <i type="logical" name="LSORBIT"> F  </i>
    <v name="SAXIS">      0.00000000      0.00000000      1.00000000</v>
    <i type="logical" name="LSPIRAL"> F  </i>
    <v name="QSPIRAL">      0.00000000      0.00000000      0.00000000</v>
    <i type="logical" name="LZEROZ"> F  </i>
   </separator>
   <separator name="electronic exchange-correlation" >
    <i type="logical" name="LASPH"> F  </i>
    <i type="logical" name="LMETAGGA"> F  </i>
   </separator>
   <separator name="electronic convergence" >
    <i type="int" name="NELM">    60</i>
    <i type="int" name="NELMDL">    -5</i>
    <i type="int" name="NELMIN">     2</i>
    <i name="ENINI">    250.00000000</i>
    <separator name="electronic convergence detail" >
     <i type="logical" name="LDIAG"> T  </i>
     <i type="logical" name="LSUBROT"> F  </i>
     <i name="WEIMIN">      0.00000000</i>
     <i name="EBREAK">      0.00000313</i>
     <i name="DEPER">      0.30000000</i>
     <i type="int" name="NRMM">     4</i>
     <i name="TIME">      0.40000000</i>
    </separator>
   </separator>
   <separator name="electronic mixer" >
    <i name="AMIX">      0.40000000</i>
    <i name="BMIX">      1.00000000</i>
    <i name="AMIN">      0.10000000</i>
    <i name="AMIX_MAG">      1.60000000</i>
    <i name="BMIX_MAG">      1.00000000</i>
    <separator name="electronic mixer details" >
     <i type="int" name="IMIX">     4</i>
     <i type="logical" name="MIXFIRST"> F  </i>
     <i type="int" name="MAXMIX">   -45</i>
     <i name="WC">    100.00000000</i>
     <i type="int" name="INIMIX">     1</i>
     <i type="int" name="MIXPRE">     1</i>
     <i type="int" name="MREMOVE">     5</i>
    </separator>
   </separator>
   <separator name="electronic dipolcorrection" >
    <i type="logical" name="LDIPOL"> F  </i>
    <i type="logical" name="LMONO"> F  </i>
    <i type="int" name="IDIPOL">     0</i>
    <i name="EPSILON">      1.00000000</i>
    <v name="DIPOL">   -100.00000000   -100.00000000   -100.00000000</v>
    <i name="EFIELD">      0.00000000</i>
   </separator>
  </separator>
  <separator name="grids" >
   <i type="int" name="NGX">    16</i>
   <i type="int" name="NGY">    16</i>
   <i type="int" name="NGZ">    16</i>
   <i type="int" name="NGXF">    32</i>
   <i type="int" name="NGYF">    32</i>
   <i type="int" name="NGZF">    32</i>
   <i type="logical" name="ADDGRID"> F  </i>
  </separator>
  <separator name="ionic" >
   <i type="int" name="NSW">     0</i>
   <i type="int" name="IBRION">    -1</i>
   <i type="int" name="MDALGO">     0</i>
   <i type="int" name="ISIF">     2</i>
   <i name="PSTRESS">      0.00000000</i>
   <i name="EDIFFG">      0.00100000</i>
   <i type="int" name="NFREE">     0</i>
   <i name="POTIM">      0.50000000</i>
   <i name="SMASS">     -3.00000000</i>
   <i name="SCALEE">      1.00000000</i>
  </separator>
  <separator name="ionic md" >
   <i name="TEBEG">      0.00010000</i>
   <i name="TEEND">      0.00010000</i>
   <i type="int" name="NBLOCK">     1</i>
   <i type="int" name="KBLOCK">     1</i>
   <i type="int" name="NPACO">   256</i>
   <i name="APACO">     16.00000000</i>
  </separator>
  <separator name="symmetry" >
   <i type="int" name="ISYM">     2</i>
   <i name="SYMPREC">      0.00001000</i>
  </separator>
  <separator name="dos" >
   <i type="int" name="LORBIT">    11</i>
   <v name="RWIGS">     -1.00000000</v>
   <i type="int" name="NEDOS">   301</i>
   <i name="EMIN">     10.00000000</i>
   <i name="EMAX">    -10.00000000</i>
   <i name="EFERMI">      0.00000000</i>
  </separator>
  <separator name="writing" >
   <i type="int" name="NWRITE">     2</i>
   <i type="logical" name="LWAVE"> T  </i>
   <i type="logical" name="LDOWNSAMPLE"> F  </i>
   <i type="logical" name="LCHARG"> T  </i>
   <i type="logical" name="LPARD"> F  </i>
   <i type="logical" name="LVTOT"> F  </i>
   <i type="logical" name="LVHAR"> F  </i>
   <i type="logical" name="LELF"> F  </i>
   <i type="logical" name="LOPTICS"> F  </i>
   <v name="STM">      0.00000000      0.00000000      0.00000000      0.00000000      0.00000000      0.00000000      0.00000000</v>
  </separator>
  <separator name="performance" >
   <i type="int" name="NPAR">     1</i>
   <i type="int" name="NSIM">     4</i>
   <i type="int" name="NBLK">    -1</i>
   <i type="logical" name="LPLANE"> T  </i>
   <i type="logical" name="LSCALAPACK"> T  </i>
   <i type="logical" name="LSCAAWARE"> F  </i>
   <i type="logical" name="LSCALU"> F  </i>
   <i type="logical" name="LASYNC"> F  </i>
   <i type="logical" name="LORBITALREAL"> F  </i>
  </separator>
  <separator name="miscellaneous" >
   <i type="int" name="IDIOT">     3</i>
   <i type="int" name="ISPECIAL">     0</i>
   <i type="logical" name="LMUSIC"> F  </i>
   <v name="POMASS">     28.08500000</v>
   <v name="DARWINR">      0.00000000</v>
   <v name="DARWINV">      1.00000000</v>
   <i type="logical" name="LCORR"> T  </i>
  </separator>
  <i type="logical" name="GGA_COMPAT"> T  </i>
  <i type="logical" name="LBERRY"> F  </i>
  <i type="int" name="ICORELEVEL">     0</i>
  <i type="logical" name="LDAU"> F  </i>
  <i type="int" name="I_CONSTRAINED_M">     0</i>
  <separator name="electronic exchange-correlation" >
   <i type="string" name="GGA">--</i>
   <i type="int" name="VOSKOWN">     0</i>
   <i type="logical" name="LHFCALC"> F  </i>
   <i type="string" name="PRECFOCK"></i>
   <i type="logical" name="LSYMGRAD"> F  </i>
   <i type="logical" name="LHFONE"> F  </i>
   <i type="logical" name="LRHFCALC"> F  </i>
   <i type="logical" name="LTHOMAS"> F  </i>
   <i type="logical" name="LMODELHF"> F  </i>
   <i name="ENCUT4O">     -1.00000000</i>
   <i type="int" name="EXXOEP">     0</i>
   <i type="int" name="FOURORBIT">     0</i>
   <i name="AEXX">      0.00000000</i>
   <i name="HFALPHA">      0.00000000</i>
   <i name="MCALPHA">      0.00000000</i>
   <i name="ALDAX">      1.00000000</i>
   <i name="AGGAX">      1.00000000</i>
   <i name="ALDAC">      1.00000000</i>
   <i name="AGGAC">      1.00000000</i>
   <i type="int" name="NKREDX">     1</i>
   <i type="int" name="NKREDY">     1</i>
   <i type="int" name="NKREDZ">     1</i>
   <i type="logical" name="SHIFTRED"> F  </i>
   <i type="logical" name="ODDONLY"> F  </i>
   <i type="logical" name="EVENONLY"> F  </i>
   <i type="int" name="LMAXFOCK">     0</i>
   <i type="int" name="NMAXFOCKAE">     0</i>
   <i type="logical" name="LFOCKAEDFT"> F  </i>
   <i name="HFSCREEN">      0.00000000</i>
   <i name="HFSCREENC">      0.00000000</i>
   <i type="int" name="NBANDSGWLOW">     0</i>
  </separator>
  <separator name="vdW DFT" >
   <i type="logical" name="LUSE_VDW"> F  </i>
   <i name="Zab_VDW">     -0.84910000</i>
   <i name="PARAM1">      0.12340000</i>
   <i name="PARAM2">      1.00000000</i>
   <i name="PARAM3">      0.00000000</i>
  </separator>
  <separator name="model GW" >
   <i type="int" name="MODEL_GW">     0</i>
   <i name="MODEL_EPS0">     12.24715808</i>
   <i name="MODEL_ALPHA">      1.00000000</i>
  </separator>
  <separator name="linear response parameters" >
   <i type="logical" name="LEPSILON"> F  </i>
   <i type="logical" name="LRPA"> F  </i>
   <i type="logical" name="LNABLA"> F  </i>
   <i type="logical" name="LVEL"> F  </i>
   <i type="int" name="KINTER">     0</i>
   <i name="CSHIFT">      0.10000000</i>
   <i name="OMEGAMAX">     -1.00000000</i>
   <i name="DEG_THRESHOLD">      0.00200000</i>
   <i name="RTIME">     -0.10000000</i>
   <i name="WPLASMAI">      0.00000000</i>
   <v name="DFIELD">      0.00000000      0.00000000      0.00000000</v>
   <v name="WPLASMA">      0.00000000      0.00000000      0.00000000      0.00000000      0.00000000      0.00000000      0.00000000      0.00000000      0.00000000</v>
  </separator>
  <separator name="orbital magnetization" >
   <i type="logical" name="NUCIND"> F  </i>
   <v name="MAGPOS">      0.00000000      0.00000000      0.00000000</v>
   <i type="logical" name="LNICSALL"> T  </i>
   <i type="logical" name="ORBITALMAG"> F  </i>
   <i type="logical" name="LMAGBLOCH"> F  </i>
   <i type="logical" name="LCHIMAG"> F  </i>
   <i type="logical" name="LGAUGE"> T  </i>
   <i type="int" name="MAGATOM">     0</i>
   <v name="MAGDIPOL">      0.00000000      0.00000000      0.00000000</v>
   <v name="AVECCONST">      0.00000000      0.00000000      0.00000000</v>
  </separator>
  <separator name="response functions" >
   <i type="logical" name="LADDER"> F  </i>
   <i type="logical" name="LRPAFORCE"> F  </i>
   <i type="logical" name="LFXC"> F  </i>
   <i type="logical" name="LHARTREE"> T  </i>
   <i type="int" name="IBSE">     0</i>
   <v type="int" name="KPOINT">    -1     0     0     0</v>
   <i type="logical" name="LTCTE"> F  </i>
   <i type="logical" name="LTETE"> F  </i>
   <i type="logical" name="LTRIPLET"> F  </i>
   <i type="logical" name="LFXCEPS"> F  </i>
   <i type="logical" name="LFXHEG"> F  </i>
   <i type="int" name="NATURALO">     2</i>
   <i type="logical" name="L2ORDER"> F  </i>
   <i type="logical" name="LMP2LT"> F  </i>
   <i type="logical" name="LUSEW"> F  </i>
   <i name="ENCUTGW">     -2.00000000</i>
   <i name="ENCUTGWSOFT">     -2.00000000</i>
   <i name="ENCUTLF">     -1.00000000</i>
   <i type="int" name="LMAXMP2">    -1</i>
   <i name="SCISSOR">      0.00000000</i>
   <i type="int" name="NOMEGA">     0</i>
   <i type="int" name="NOMEGAR">     0</i>
   <i type="int" name="NBANDSGW">    -1</i>
   <i type="int" name="NBANDSO">    -1</i>
   <i type="int" name="NBANDSV">    -1</i>
   <i type="int" name="NELM">     1</i>
   <i type="int" name="NELMHF">     1</i>
   <i type="int" name="DIM">     3</i>
   <i type="int" name="ANTIRES">     0</i>
   <i name="OMEGAMAX">    -30.00000000</i>
   <i name="OMEGAMIN">    -30.00000000</i>
   <i name="OMEGATL">   -200.00000000</i>
   <i type="int" name="OMEGAGRID">   140</i>
   <i name="CSHIFT">     -0.10000000</i>
   <i type="logical" name="SELFENERGY"> F  </i>
   <i type="logical" name="LSPECTRAL"> F  </i>
   <i type="logical" name="LSPECTRALGW"> F  </i>
   <i type="logical" name="LSINGLES"> F  </i>
   <i type="logical" name="LFERMIGW"> F  </i>
   <i type="logical" name="ODDONLYGW"> F  </i>
   <i type="logical" name="EVENONLYGW"> F  </i>
   <i type="int" name="NKREDLFX">     1</i>
   <i type="int" name="NKREDLFY">     1</i>
   <i type="int" name="NKREDLFZ">     1</i>
   <i type="int" name="MAXMEM">  2800</i>
   <i type="int" name="TELESCOPE">     0</i>
   <i type="int" name="TAUPAR">     1</i>
   <i type="int" name="OMEGAPAR">    -1</i>
   <i name="LAMBDA">      1.00000000</i>
  </separator>
  <separator name="External order field" >
   <i name="OFIELD_KAPPA">      0.00000000</i>
   <v name="OFIELD_K">      0.00000000      0.00000000      0.00000000</v>
   <i name="OFIELD_Q6_NEAR">      0.00000000</i>
   <i name="OFIELD_Q6_FAR">      0.00000000</i>
   <i name="OFIELD_A">      0.00000000</i>
  </separator>
 </parameters>
 <atominfo>
  <atoms>       2 </atoms>
  <types>       1 </types>
  <array name="atoms" >
   <dimension dim="1">ion</dimension>
   <field type="string">element</field>
   <field type="int">atomtype</field>
   <set>
    <rc><c>Si</c><c>   1</c></rc>
    <rc><c>Si</c><c>   1</c></rc>
   </set>
  </array>
  <array name="atomtypes" >
   <dimension dim="1">type</dimension>
   <field type="int">atomspertype</field>
   <field type="string">element</field>
   <field>mass</field>
   <field>valence</field>
   <field type="string">pseudopotential</field>
   <set>
    <rc><c>   2</c><c>Si</c><c>     28.08500000</c><c>      4.00000000</c><c>  PAW_PBE Si 05Jan2001                  </c></rc>
   </set>
  </array>
 </atominfo>
 <structure name="initialpos" >
  <crystal>
   <varray name="basis" >
    <v>       2.73292696       2.73292696       0.00000000 </v>
    <v>       0.00000000       2.73292696       2.73292696 </v>
    <v>       2.73292696       0.00000000       2.73292696 </v>
   </varray>
   <i name="volume">     40.82386028 </i>
   <varray name="rec_basis" >
    <v>       0.18295403       0.18295403      -0.18295403 </v>
    <v>      -0.18295403       0.18295403       0.18295403 </v>
    <v>       0.18295403      -0.18295403       0.18295403 </v>
   </varray>
  </crystal>
  <varray name="positions" >
   <v>       0.00000000       0.00000000       0.00000000 </v>
   <v>       0.25000000       0.25000000       0.25000000 </v>
  </varray>
 </structure>
 <calculation>
  <scstep>
   <time name="dav">    0.07    0.07</time>
   <time name="total">    0.09    0.09</time>
   <energy>
    <i name="alphaZ">      3.29837801 </i>
    <i name="ewald">   -227.06423551 </i>
    <i name="hartreedc">    -15.14289055 </i>
    <i name="XCdc">    -18.04527951 </i>
    <i name="pawpsdc">    968.33441392 </i>
    <i name="pawaedc">   -933.36091437 </i>
    <i name="eentropy">     -0.00416444 </i>
    <i name="bandstr">     20.63594966 </i>
    <i name="atom">    206.12349923 </i>
    <i name="e_fr_energy">      4.77475644 </i>
    <i name="e_wo_entrp">      4.77892088 </i>
    <i name="e_0_energy">      4.77683866 </i>
   </energy>
  </scstep>
  <scstep>
   <time name="dav">    0.10    0.10</time>
   <time name="total">    0.10    0.10</time>
   <energy>
    <i name="e_fr_energy">     -6.72191694 </i>
    <i name="e_wo_entrp">     -6.71936738 </i>
    <i name="e_0_energy">     -6.72064216 </i>
   </energy>
  </scstep>
  <scstep>
   <time name="dav">    0.09    0.09</time>
   <time name="total">    0.09    0.09</time>
   <energy>
    <i name="e_fr_energy">     -6.88440041 </i>
    <i name="e_wo_entrp">     -6.88439980 </i>
    <i name="e_0_energy">     -6.88440010 </i>
   </energy>
  </scstep>
  <scstep>
   <time name="dav">    0.10    0.10</time>
   <time name="total">    0.11    0.11</time>
   <energy>
    <i name="e_fr_energy">     -6.88674808 </i>
    <i name="e_wo_entrp">     -6.88674747 </i>
    <i name="e_0_energy">     -6.88674777 </i>
   </energy>
  </scstep>
  <scstep>
   <time name="dav">    0.08    0.08</time>
   <time name="total">    0.08    0.08</time>
   <energy>
    <i name="e_fr_energy">     -6.88677416 </i>
    <i name="e_wo_entrp">     -6.88677355 </i>
    <i name="e_0_energy">     -6.88677385 </i>
   </energy>
  </scstep>
  <scstep>
   <time name="dav">    0.09    0.09</time>
   <time name="total">    0.09    0.09</time>
   <energy>
    <i name="alphaZ">      3.29837801 </i>
    <i name="ewald">   -227.06423551 </i>
    <i name="hartreedc">    -15.14289055 </i>
    <i name="XCdc">    -18.04527951 </i>
    <i name="pawpsdc">    968.33441392 </i>
    <i name="pawaedc">   -933.36091437 </i>
    <i name="eentropy">     -0.00000061 </i>
    <i name="bandstr">      8.97025468 </i>
    <i name="atom">    206.12349923 </i>
    <i name="e_fr_energy">     -6.88677471 </i>
    <i name="e_wo_entrp">     -6.88677410 </i>
    <i name="e_0_energy">     -6.88677440 </i>
   </energy>
  </scstep>
  <structure>
   <crystal>
    <varray name="basis" >
     <v>       2.73292696       2.73292696       0.00000000 </v>
     <v>       0.00000000       2.73292696       2.73292696 </v>
     <v>       2.73292696       0.00000000       2.73292696 </v>
    </varray>
    <i name="volume">     40.82386028 </i>
    <varray name="rec_basis" >
     <v>       0.18295403       0.18295403      -0.18295403 </v>
     <v>      -0.18295403       0.18295403       0.18295403 </v>
     <v>       0.18295403      -0.18295403       0.18295403 </v>
    </varray>
   </crystal>
   <varray name="positions" >
    <v>       0.00000000       0.00000000       0.00000000 </v>
    <v>       0.25000000       0.25000000       0.25000000 </v>
   </varray>
  </structure>
  <varray name="forces" >
   <v>      -0.00000000      -0.00000000      -0.00000000 </v>
   <v>       0.00000000       0.00000000       0.00000000 </v>
  </varray>
  <varray name="stress" >
   <v>     155.35894253      -0.00000000       0.00000000 </v>
   <v>      -0.00000000     155.35894253      -0.00000000 </v>
   <v>       0.00000000      -0.00000000     155.35894253 </v>
  </varray>
  <energy>
   <i name="e_fr_energy">     -6.88677471 </i>
   <i name="e_wo_entrp">     -6.88677440 </i>
   <i name="e_0_energy">     -0.00000061 </i>
  </energy>
  <time name="totalsc">    0.68    0.70</time>
  <eigenvalues>
   <array>
    <dimension dim="1">band</dimension>
    <dimension dim="2">kpoint</dimension>
    <dimension dim="3">spin</dimension>
    <field>eigene</field>
    <field>occ</field>
    <set>
     <set comment="spin 1">
      <set comment="kpoint 1">
       <r>   -3.9116    1.0000 </r>
       <r>   -1.2439    1.0000 </r>
       <r>    4.4565    1.0000 </r>
       <r>    4.4565    1.0000 </r>
       <r>    7.1161    0.0000 </r>
       <r>    9.0047    0.0000 </r>
       <r>    9.0047    0.0000 </r>
       <r>   13.3444    0.0000 </r>
      </set>
      <set comment="kpoint 2">
       <r>   -4.0692    1.0000 </r>
       <r>   -1.0104    1.0000 </r>
       <r>    4.4786    1.0000 </r>
       <r>    4.4786    1.0000 </r>
       <r>    7.1418    0.0000 </r>
       <r>    9.0286    0.0000 </r>
       <r>    9.0286    0.0000 </r>
       <r>   13.3811    0.0000 </r>
      </set>
      <set comment="kpoint 3">
       <r>   -4.4297    1.0000 </r>
       <r>   -0.4248    1.0000 </r>
       <r>    4.5451    1.0000 </r>
       <r>    4.5451    1.0000 </r>
       <r>    7.2178    0.0000 </r>
       <r>    9.0888    0.0000 </r>
       <r>    9.0888    0.0000 </r>
       <r>   13.4650    0.0000 </r>
      </set>
      <set comment="kpoint 4">
       <r>   -4.8418    1.0000 </r>
       <r>    0.3591    1.0000 </r>
       <r>    4.6541    1.0000 </r>
       <r>    4.6541    1.0000 </r>
       <r>    7.3433    0.0000 </r>
       <r>    9.1566    0.0000 </r>
       <r>    9.1566    0.0000 </r>
       <r>   13.4310    0.0000 </r>
      </set>
      <set comment="kpoint 5">
       <r>   -5.2318    1.0000 </r>
       <r>    1.2619    1.0000 </r>
       <r>    4.8040    1.0000 </r>
       <r>    4.8040    1.0000 </r>
       <r>    7.5100    0.0000 </r>
       <r>    9.1737    0.0000 </r>
       <r>    9.1737    0.0000 </r>
       <r>   12.8496    0.0000 </r>
      </set>
      <set comment="kpoint 6">
       <r>   -5.5686    1.0000 </r>
       <r>    2.2448    1.0000 </r>
       <r>    4.9896    1.0000 </r>
       <r>    4.9896    1.0000 </r>
       <r>    7.7125    0.0000 </r>
       <r>    9.0737    0.0000 </r>
       <r>    9.0737    0.0000 </r>
       <r>   11.9247    0.0000 </r>
      </set>
      <set comment="kpoint 7">
       <r>   -5.8388    1.0000 </r>
       <r>    3.2724    1.0000 </r>
       <r>    5.1985    1.0000 </r>
       <r>    5.1985    1.0000 </r>
       <r>    7.9331    0.0000 </r>
       <r>    8.8406    0.0000 </r>
       <r>    8.8406    0.0000 </r>
       <r>   10.9301    0.0000 </r>
      </set>
      <set comment="kpoint 8">
       <r>   -6.0351    1.0000 </r>
       <r>    4.2995    1.0000 </r>
       <r>    5.4085    1.0000 </r>
       <r>    5.4085    1.0000 </r>
       <r>    8.1371    0.0000 </r>
       <r>    8.5467    0.0000 </r>
       <r>    8.5467    0.0000 </r>
       <r>    9.9426    0.0000 </r>
      </set>
      <set comment="kpoint 9">
       <r>   -6.1540    1.0000 </r>
       <r>    5.2096    1.0000 </r>
       <r>    5.5771    1.0000 </r>
       <r>    5.5771    1.0000 </r>
       <r>    8.2481    0.0000 </r>
       <r>    8.3007    0.0000 </r>
       <r>    8.3007    0.0000 </r>
       <r>    9.1043    0.0000 </r>
      </set>
      <set comment="kpoint 10">
       <r>   -6.1939    1.0000 </r>
       <r>    5.6434    1.0000 </r>
       <r>    5.6435    1.0000 </r>
       <r>    5.6435    1.0000 </r>
       <r>    8.2033    0.0000 </r>
       <r>    8.2033    0.0000 </r>
       <r>    8.2033    0.0000 </r>
       <r>    8.7836    0.0000 </r>
      </set>
      <set comment="kpoint 11">
       <r>   -6.1939    1.0000 </r>
       <r>    5.6434    1.0000 </r>
       <r>    5.6435    1.0000 </r>
       <r>    5.6435    1.0000 </r>
       <r>    8.2033    0.0000 </r>
       <r>    8.2033    0.0000 </r>
       <r>    8.2033    0.0000 </r>
       <r>    8.7836    0.0000 </r>
      </set>
      <set comment="kpoint 12">
       <r>   -6.1407    1.0000 </r>
       <r>    5.2930    1.0000 </r>
       <r>    5.4354    1.0000 </r>
       <r>    5.4354    1.0000 </r>
       <r>    8.0764    0.0000 </r>
       <r>    8.4769    0.0000 </r>
       <r>    8.4769    0.0000 </r>
       <r>    9.1205    0.0000 </r>
      </set>
      <set comment="kpoint 13">
       <r>   -5.9816    1.0000 </r>
       <r>    4.5124    1.0000 </r>
       <r>    4.9780    1.0000 </r>
       <r>    4.9780    1.0000 </r>
       <r>    7.7564    0.0000 </r>
       <r>    9.1272    0.0000 </r>
       <r>    9.1272    0.0000 </r>
       <r>    9.7552    0.0000 </r>
      </set>
      <set comment="kpoint 14">
       <r>   -5.7177    1.0000 </r>
       <r>    3.5850    1.0000 </r>
       <r>    4.4713    1.0000 </r>
       <r>    4.4713    1.0000 </r>
       <r>    7.3586    0.0000 </r>
       <r>    9.8638    0.0000 </r>
       <r>    9.9541    0.0000 </r>
       <r>    9.9541    0.0000 </r>
      </set>
      <set comment="kpoint 15">
       <r>   -5.3510    1.0000 </r>
       <r>    2.6109    1.0000 </r>
       <r>    3.9980    1.0000 </r>
       <r>    3.9980    1.0000 </r>
       <r>    6.9694    0.0000 </r>
       <r>    9.1968    0.0000 </r>
       <r>   10.8694    0.0000 </r>
       <r>   10.8694    0.0000 </r>
      </set>
      <set comment="kpoint 16">
       <r>   -4.8843    1.0000 </r>
       <r>    1.6242    1.0000 </r>
       <r>    3.5899    1.0000 </r>
       <r>    3.5899    1.0000 </r>
       <r>    6.6405    0.0000 </r>
       <r>    8.3917    0.0000 </r>
       <r>   11.8366    0.0000 </r>
       <r>   11.8366    0.0000 </r>
      </set>
      <set comment="kpoint 17">
       <r>   -4.3213    1.0000 </r>
       <r>    0.6430    1.0000 </r>
       <r>    3.2641    1.0000 </r>
       <r>    3.2641    1.0000 </r>
       <r>    6.4027    0.0000 </r>
       <r>    7.6740    0.0000 </r>
       <r>   12.8409    0.0000 </r>
       <r>   12.8409    0.0000 </r>
      </set>
      <set comment="kpoint 18">
       <r>   -3.6675    1.0000 </r>
       <r>   -0.3185    1.0000 </r>
       <r>    3.0271    1.0000 </r>
       <r>    3.0271    1.0000 </r>
       <r>    6.2750    0.0000 </r>
       <r>    7.0956    0.0000 </r>
       <r>   13.8642    0.0000 </r>
       <r>   13.8643    0.0000 </r>
      </set>
      <set comment="kpoint 19">
       <r>   -2.9305    1.0000 </r>
       <r>   -1.2437    1.0000 </r>
       <r>    2.8835    1.0000 </r>
       <r>    2.8835    1.0000 </r>
       <r>    6.2697    0.0000 </r>
       <r>    6.6718    0.0000 </r>
       <r>   14.8868    0.0000 </r>
       <r>   14.8868    0.0000 </r>
      </set>
      <set comment="kpoint 20">
       <r>   -2.1188    1.0000 </r>
       <r>   -2.1188    1.0000 </r>
       <r>    2.8351    1.0000 </r>
       <r>    2.8351    1.0000 </r>
       <r>    6.3984    0.0000 </r>
       <r>    6.3984    0.0000 </r>
       <r>   15.5937    0.0000 </r>
       <r>   15.5945    0.0000 </r>
      </set>
      <set comment="kpoint 21">
       <r>   -2.1188    1.0000 </r>
       <r>   -2.1188    1.0000 </r>
       <r>    2.8351    1.0000 </r>
       <r>    2.8351    1.0000 </r>
       <r>    6.3984    0.0000 </r>
       <r>    6.3984    0.0000 </r>
       <r>   15.5937    0.0000 </r>
       <r>   15.5940    0.0000 </r>
      </set>
      <set comment="kpoint 22">
       <r>   -2.1219    1.0000 </r>
       <r>   -2.1116    1.0000 </r>
       <r>    2.7903    1.0000 </r>
       <r>    2.8404    1.0000 </r>
       <r>    6.4039    0.0000 </r>
       <r>    6.4640    0.0000 </r>
       <r>   15.5239    0.0000 </r>
       <r>   15.5543    0.0000 </r>
      </set>
      <set comment="kpoint 23">
       <r>   -2.1310    1.0000 </r>
       <r>   -2.0899    1.0000 </r>
       <r>    2.6674    1.0000 </r>
       <r>    2.8564    1.0000 </r>
       <r>    6.4223    0.0000 </r>
       <r>    6.6553    0.0000 </r>
       <r>   15.3339    0.0000 </r>
       <r>   15.4405    0.0000 </r>
      </set>
      <set comment="kpoint 24">
       <r>   -2.1475    1.0000 </r>
       <r>   -2.0538    1.0000 </r>
       <r>    2.4902    1.0000 </r>
       <r>    2.8834    1.0000 </r>
       <r>    6.4537    0.0000 </r>
       <r>    6.9460    0.0000 </r>
       <r>   15.0669    0.0000 </r>
       <r>   15.2672    0.0000 </r>
      </set>
      <set comment="kpoint 25">
       <r>   -2.1733    1.0000 </r>
       <r>   -2.0034    1.0000 </r>
       <r>    2.2848    1.0000 </r>
       <r>    2.9203    1.0000 </r>
       <r>    6.4963    0.0000 </r>
       <r>    7.3119    0.0000 </r>
       <r>   14.7537    0.0000 </r>
       <r>   15.0520    0.0000 </r>
      </set>
      <set comment="kpoint 26">
       <r>   -2.2108    1.0000 </r>
       <r>   -1.9385    1.0000 </r>
       <r>    2.0729    1.0000 </r>
       <r>    2.9676    1.0000 </r>
       <r>    6.5508    0.0000 </r>
       <r>    7.7347    0.0000 </r>
       <r>   14.4191    0.0000 </r>
       <r>   14.8409    0.0000 </r>
      </set>
      <set comment="kpoint 27">
       <r>   -2.2628    1.0000 </r>
       <r>   -1.8593    1.0000 </r>
       <r>    1.8708    1.0000 </r>
       <r>    3.0250    1.0000 </r>
       <r>    6.6170    0.0000 </r>
       <r>    8.2002    0.0000 </r>
       <r>   14.0745    0.0000 </r>
       <r>   14.5558    0.0000 </r>
      </set>
      <set comment="kpoint 28">
       <r>   -2.3328    1.0000 </r>
       <r>   -1.7658    1.0000 </r>
       <r>    1.6899    1.0000 </r>
       <r>    3.0923    1.0000 </r>
       <r>    6.6945    0.0000 </r>
       <r>    8.6973    0.0000 </r>
       <r>   13.7263    0.0000 </r>
       <r>   14.3062    0.0000 </r>
      </set>
      <set comment="kpoint 29">
       <r>   -2.4226    1.0000 </r>
       <r>   -1.6580    1.0000 </r>
       <r>    1.5398    1.0000 </r>
       <r>    3.1691    1.0000 </r>
       <r>    6.7830    0.0000 </r>
       <r>    9.2219    0.0000 </r>
       <r>   13.3807    0.0000 </r>
       <r>   13.9680    0.0000 </r>
      </set>
      <set comment="kpoint 30">
       <r>   -2.5340    1.0000 </r>
       <r>   -1.5360    1.0000 </r>
       <r>    1.4255    1.0000 </r>
       <r>    3.2551    1.0000 </r>
       <r>    6.8821    0.0000 </r>
       <r>    9.7672    0.0000 </r>
       <r>   13.0395    0.0000 </r>
       <r>   13.5949    0.0000 </r>
      </set>
      <set comment="kpoint 31">
       <r>   -2.5340    1.0000 </r>
       <r>   -1.5360    1.0000 </r>
       <r>    1.4255    1.0000 </r>
       <r>    3.2551    1.0000 </r>
       <r>    6.8821    0.0000 </r>
       <r>    9.7672    0.0000 </r>
       <r>   13.0395    0.0000 </r>
       <r>   13.5940    0.0000 </r>
      </set>
      <set comment="kpoint 32">
       <r>   -2.9920    1.0000 </r>
       <r>   -1.0850    1.0000 </r>
       <r>    1.3152    1.0000 </r>
       <r>    3.5626    1.0000 </r>
       <r>    7.2367    0.0000 </r>
       <r>   11.4426    0.0000 </r>
       <r>   12.0613    0.0000 </r>
       <r>   12.6370    0.0000 </r>
      </set>
      <set comment="kpoint 33">
       <r>   -3.5742    1.0000 </r>
       <r>   -0.5078    1.0000 </r>
       <r>    1.5204    1.0000 </r>
       <r>    3.9306    1.0000 </r>
       <r>    7.6538    0.0000 </r>
       <r>   11.1771    0.0000 </r>
       <r>   11.5270    0.0000 </r>
       <r>   12.2476    0.0000 </r>
      </set>
      <set comment="kpoint 34">
       <r>   -4.1869    1.0000 </r>
       <r>    0.1913    1.0000 </r>
       <r>    1.9586    1.0000 </r>
       <r>    4.3318    1.0000 </r>
       <r>    8.0873    0.0000 </r>
       <r>   10.3976    0.0000 </r>
       <r>   10.7460    0.0000 </r>
       <r>   11.6921    0.0000 </r>
      </set>
      <set comment="kpoint 35">
       <r>   -4.7617    1.0000 </r>
       <r>    1.0092    1.0000 </r>
       <r>    2.5612    1.0000 </r>
       <r>    4.7299    1.0000 </r>
       <r>    8.4483    0.0000 </r>
       <r>    9.7318    0.0000 </r>
       <r>   10.0549    0.0000 </r>
       <r>   11.3490    0.0000 </r>
      </set>
      <set comment="kpoint 36">
       <r>   -5.2607    1.0000 </r>
       <r>    1.9368    1.0000 </r>
       <r>    3.2742    1.0000 </r>
       <r>    5.0808    1.0000 </r>
       <r>    8.6280    0.0000 </r>
       <r>    9.1826    0.0000 </r>
       <r>    9.4640    0.0000 </r>
       <r>   11.2374    0.0000 </r>
      </set>
      <set comment="kpoint 37">
       <r>   -5.6627    1.0000 </r>
       <r>    2.9613    1.0000 </r>
       <r>    4.0456    1.0000 </r>
       <r>    5.3493    1.0000 </r>
       <r>    8.6171    0.0000 </r>
       <r>    8.7547    0.0000 </r>
       <r>    8.9819    0.0000 </r>
       <r>   11.0856    0.0000 </r>
      </set>
      <set comment="kpoint 38">
       <r>   -5.9560    1.0000 </r>
       <r>    4.0490    1.0000 </r>
       <r>    4.7970    1.0000 </r>
       <r>    5.5244    1.0000 </r>
       <r>    8.4496    0.0000 </r>
       <r>    8.5124    0.0000 </r>
       <r>    8.5971    0.0000 </r>
       <r>   10.3122    0.0000 </r>
      </set>
      <set comment="kpoint 39">
       <r>   -6.1341    1.0000 </r>
       <r>    5.0926    1.0000 </r>
       <r>    5.3981    1.0000 </r>
       <r>    5.6161    1.0000 </r>
       <r>    8.2650    0.0000 </r>
       <r>    8.3174    0.0000 </r>
       <r>    8.3734    0.0000 </r>
       <r>    9.2499    0.0000 </r>
      </set>
      <set comment="kpoint 40">
       <r>   -6.1939    1.0000 </r>
       <r>    5.6434    1.0000 </r>
       <r>    5.6435    1.0000 </r>
       <r>    5.6435    1.0000 </r>
       <r>    8.2033    0.0000 </r>
       <r>    8.2033    0.0000 </r>
       <r>    8.2033    0.0000 </r>
       <r>    8.7836    0.0000 </r>
      </set>
     </set>
    </set>
   </array>
  </eigenvalues>
  <separator name="orbital magnetization" >
   <v name="MAGDIPOLOUT">      0.00000000      0.00000000      0.00000000</v>
  </separator>
  <dos>
   <i name="efermi">      5.96935601 </i>
   <total>
    <array>
     <dimension dim="1">gridpoints</dimension>
     <dimension dim="2">spin</dimension>
     <field>energy</field>
     <field>total</field>
     <field>integrated</field>
     <set>
      <set comment="spin 1">
       <r>    -7.2833     0.0000     0.0000 </r>
       <r>    -7.2034     0.0000     0.0000 </r>
       <r>    -7.1235     0.0000     0.0000 </r>
       <r>    -7.0436     0.0000     0.0000 </r>
       <r>    -6.9637     0.0000     0.0000 </r>
       <r>    -6.8838     0.0000     0.0000 </r>
       <r>    -6.8039     0.0000     0.0000 </r>
       <r>    -6.7240     0.0000     0.0000 </r>
       <r>    -6.6441     0.0000     0.0000 </r>
       <r>    -6.5643     0.0000     0.0000 </r>
       <r>    -6.4844     0.0000     0.0000 </r>
       <r>    -6.4045     0.0029     0.0002 </r>
       <r>    -6.3246     0.0677     0.0056 </r>
       <r>    -6.2447     0.5174     0.0470 </r>
       <r>    -6.1648     1.3875     0.1578 </r>
       <r>    -6.0849     1.4916     0.2770 </r>
       <r>    -6.0050     1.0380     0.3599 </r>
       <r>    -5.9251     0.8184     0.4253 </r>
       <r>    -5.8452     0.5690     0.4708 </r>
       <r>    -5.7653     0.4738     0.5086 </r>
       <r>    -5.6855     0.5705     0.5542 </r>
       <r>    -5.6056     0.5950     0.6017 </r>
       <r>    -5.5257     0.4200     0.6353 </r>
       <r>    -5.4458     0.2178     0.6527 </r>
       <r>    -5.3659     0.2869     0.6756 </r>
       <r>    -5.2860     0.5578     0.7202 </r>
       <r>    -5.2061     0.6250     0.7701 </r>
       <r>    -5.1262     0.3139     0.7952 </r>
       <r>    -5.0463     0.0651     0.8004 </r>
       <r>    -4.9664     0.0977     0.8082 </r>
       <r>    -4.8866     0.3918     0.8395 </r>
       <r>    -4.8067     0.6430     0.8908 </r>
       <r>    -4.7268     0.5055     0.9312 </r>
       <r>    -4.6469     0.2009     0.9473 </r>
       <r>    -4.5670     0.0487     0.9512 </r>
       <r>    -4.4871     0.1219     0.9609 </r>
       <r>    -4.4072     0.3255     0.9869 </r>
       <r>    -4.3273     0.4243     1.0208 </r>
       <r>    -4.2474     0.3960     1.0524 </r>
       <r>    -4.1675     0.3920     1.0838 </r>
       <r>    -4.0876     0.4053     1.1161 </r>
       <r>    -4.0078     0.3542     1.1444 </r>
       <r>    -3.9279     0.3112     1.1693 </r>
       <r>    -3.8480     0.2718     1.1910 </r>
       <r>    -3.7681     0.1496     1.2030 </r>
       <r>    -3.6882     0.2368     1.2219 </r>
       <r>    -3.6083     0.4230     1.2557 </r>
       <r>    -3.5284     0.3775     1.2858 </r>
       <r>    -3.4485     0.1530     1.2981 </r>
       <r>    -3.3686     0.0231     1.2999 </r>
       <r>    -3.2887     0.0011     1.3000 </r>
       <r>    -3.2089     0.0007     1.3001 </r>
       <r>    -3.1290     0.0174     1.3014 </r>
       <r>    -3.0491     0.1425     1.3128 </r>
       <r>    -2.9692     0.4143     1.3459 </r>
       <r>    -2.8893     0.4557     1.3823 </r>
       <r>    -2.8094     0.1910     1.3976 </r>
       <r>    -2.7295     0.0323     1.4002 </r>
       <r>    -2.6496     0.0622     1.4051 </r>
       <r>    -2.5697     0.3317     1.4316 </r>
       <r>    -2.4898     0.6383     1.4826 </r>
       <r>    -2.4099     0.6250     1.5326 </r>
       <r>    -2.3301     0.6328     1.5831 </r>
       <r>    -2.2502     0.9560     1.6595 </r>
       <r>    -2.1703     1.9850     1.8181 </r>
       <r>    -2.0904     3.0129     2.0588 </r>
       <r>    -2.0105     2.2444     2.2381 </r>
       <r>    -1.9306     1.0747     2.3239 </r>
       <r>    -1.8507     0.6648     2.3770 </r>
       <r>    -1.7708     0.5458     2.4207 </r>
       <r>    -1.6909     0.4897     2.4598 </r>
       <r>    -1.6110     0.5164     2.5010 </r>
       <r>    -1.5312     0.6239     2.5509 </r>
       <r>    -1.4513     0.4714     2.5885 </r>
       <r>    -1.3714     0.1757     2.6026 </r>
       <r>    -1.2915     0.2818     2.6251 </r>
       <r>    -1.2116     0.5563     2.6695 </r>
       <r>    -1.1317     0.4972     2.7092 </r>
       <r>    -1.0518     0.4808     2.7477 </r>
       <r>    -0.9719     0.4373     2.7826 </r>
       <r>    -0.8920     0.1865     2.7975 </r>
       <r>    -0.8121     0.0298     2.7999 </r>
       <r>    -0.7322     0.0021     2.8000 </r>
       <r>    -0.6524     0.0127     2.8011 </r>
       <r>    -0.5725     0.1111     2.8099 </r>
       <r>    -0.4926     0.3518     2.8380 </r>
       <r>    -0.4127     0.5064     2.8785 </r>
       <r>    -0.3328     0.4672     2.9158 </r>
       <r>    -0.2529     0.3123     2.9408 </r>
       <r>    -0.1730     0.1030     2.9490 </r>
       <r>    -0.0931     0.0121     2.9500 </r>
       <r>    -0.0132     0.0016     2.9501 </r>
       <r>     0.0667     0.0232     2.9519 </r>
       <r>     0.1465     0.1412     2.9632 </r>
       <r>     0.2264     0.2854     2.9860 </r>
       <r>     0.3063     0.2850     3.0088 </r>
       <r>     0.3862     0.2946     3.0323 </r>
       <r>     0.4661     0.1842     3.0471 </r>
       <r>     0.5460     0.0875     3.0540 </r>
       <r>     0.6259     0.2023     3.0702 </r>
       <r>     0.7058     0.2556     3.0906 </r>
       <r>     0.7857     0.1041     3.0989 </r>
       <r>     0.8656     0.0259     3.1010 </r>
       <r>     0.9455     0.1023     3.1092 </r>
       <r>     1.0253     0.2548     3.1295 </r>
       <r>     1.1052     0.2108     3.1464 </r>
       <r>     1.1851     0.1492     3.1583 </r>
       <r>     1.2650     0.3841     3.1890 </r>
       <r>     1.3449     0.6425     3.2403 </r>
       <r>     1.4248     0.7867     3.3032 </r>
       <r>     1.5047     0.9021     3.3752 </r>
       <r>     1.5846     0.8644     3.4443 </r>
       <r>     1.6645     0.7075     3.5008 </r>
       <r>     1.7444     0.4738     3.5387 </r>
       <r>     1.8242     0.3351     3.5654 </r>
       <r>     1.9041     0.5775     3.6116 </r>
       <r>     1.9840     0.7553     3.6719 </r>
       <r>     2.0639     0.5694     3.7174 </r>
       <r>     2.1438     0.3676     3.7468 </r>
       <r>     2.2237     0.3908     3.7780 </r>
       <r>     2.3036     0.5293     3.8203 </r>
       <r>     2.3835     0.3507     3.8483 </r>
       <r>     2.4634     0.3024     3.8725 </r>
       <r>     2.5433     0.5842     3.9191 </r>
       <r>     2.6232     0.7810     3.9815 </r>
       <r>     2.7030     0.7718     4.0432 </r>
       <r>     2.7829     1.3046     4.1474 </r>
       <r>     2.8628     2.6372     4.3581 </r>
       <r>     2.9427     2.8379     4.5848 </r>
       <r>     3.0226     2.0859     4.7515 </r>
       <r>     3.1025     1.4315     4.8658 </r>
       <r>     3.1824     1.1663     4.9590 </r>
       <r>     3.2623     1.6608     5.0917 </r>
       <r>     3.3422     1.4663     5.2088 </r>
       <r>     3.4221     0.4979     5.2486 </r>
       <r>     3.5019     0.3470     5.2763 </r>
       <r>     3.5818     0.9213     5.3499 </r>
       <r>     3.6617     0.9214     5.4236 </r>
       <r>     3.7416     0.3017     5.4477 </r>
       <r>     3.8215     0.0755     5.4537 </r>
       <r>     3.9014     0.2986     5.4775 </r>
       <r>     3.9813     0.8613     5.5464 </r>
       <r>     4.0612     1.1421     5.6376 </r>
       <r>     4.1411     0.6475     5.6893 </r>
       <r>     4.2210     0.2447     5.7089 </r>
       <r>     4.3008     0.4493     5.7448 </r>
       <r>     4.3807     0.8996     5.8166 </r>
       <r>     4.4606     1.7646     5.9576 </r>
       <r>     4.5405     2.2647     6.1385 </r>
       <r>     4.6204     1.5578     6.2630 </r>
       <r>     4.7003     1.0997     6.3509 </r>
       <r>     4.7802     1.1387     6.4418 </r>
       <r>     4.8601     1.0495     6.5257 </r>
       <r>     4.9400     0.9522     6.6017 </r>
       <r>     5.0199     1.3150     6.7068 </r>
       <r>     5.0998     1.2718     6.8084 </r>
       <r>     5.1796     1.1400     6.8995 </r>
       <r>     5.2595     1.1648     6.9925 </r>
       <r>     5.3394     1.2333     7.0911 </r>
       <r>     5.4193     1.6528     7.2231 </r>
       <r>     5.4992     1.7168     7.3603 </r>
       <r>     5.5791     2.1699     7.5336 </r>
       <r>     5.6590     3.1675     7.7867 </r>
       <r>     5.7389     2.1310     7.9569 </r>
       <r>     5.8188     0.5006     7.9969 </r>
       <r>     5.8987     0.0379     7.9999 </r>
       <r>     5.9785     0.0009     8.0000 </r>
       <r>     6.0584     0.0016     8.0001 </r>
       <r>     6.1383     0.0353     8.0029 </r>
       <r>     6.2182     0.2620     8.0239 </r>
       <r>     6.2981     0.8269     8.0899 </r>
       <r>     6.3780     1.8191     8.2353 </r>
       <r>     6.4579     2.5890     8.4421 </r>
       <r>     6.5378     1.9591     8.5986 </r>
       <r>     6.6177     1.4540     8.7148 </r>
       <r>     6.6976     1.4723     8.8324 </r>
       <r>     6.7775     1.0658     8.9175 </r>
       <r>     6.8573     0.8587     8.9861 </r>
       <r>     6.9372     1.0149     9.0672 </r>
       <r>     7.0171     0.9063     9.1396 </r>
       <r>     7.0970     0.8682     9.2090 </r>
       <r>     7.1769     1.0708     9.2945 </r>
       <r>     7.2568     1.0937     9.3819 </r>
       <r>     7.3367     1.0750     9.4678 </r>
       <r>     7.4166     0.8163     9.5330 </r>
       <r>     7.4965     0.4627     9.5700 </r>
       <r>     7.5764     0.4321     9.6045 </r>
       <r>     7.6562     0.7700     9.6660 </r>
       <r>     7.7361     1.1864     9.7608 </r>
       <r>     7.8160     0.8784     9.8310 </r>
       <r>     7.8959     0.4052     9.8633 </r>
       <r>     7.9758     0.3826     9.8939 </r>
       <r>     8.0557     0.6942     9.9494 </r>
       <r>     8.1356     1.7968    10.0929 </r>
       <r>     8.2155     3.4654    10.3698 </r>
       <r>     8.2954     3.5219    10.6512 </r>
       <r>     8.3753     2.3269    10.8371 </r>
       <r>     8.4552     1.9791    10.9952 </r>
       <r>     8.5350     2.0918    11.1623 </r>
       <r>     8.6149     1.8542    11.3104 </r>
       <r>     8.6948     1.4986    11.4301 </r>
       <r>     8.7747     1.5883    11.5570 </r>
       <r>     8.8546     1.5883    11.6839 </r>
       <r>     8.9345     1.2124    11.7808 </r>
       <r>     9.0144     1.9105    11.9334 </r>
       <r>     9.0943     3.3276    12.1993 </r>
       <r>     9.1742     3.8187    12.5043 </r>
       <r>     9.2541     2.6119    12.7130 </r>
       <r>     9.3339     0.9483    12.7888 </r>
       <r>     9.4138     0.2802    12.8111 </r>
       <r>     9.4937     0.2755    12.8331 </r>
       <r>     9.5736     0.1880    12.8482 </r>
       <r>     9.6535     0.2201    12.8657 </r>
       <r>     9.7334     0.7770    12.9278 </r>
       <r>     9.8133     1.1996    13.0237 </r>
       <r>     9.8932     1.0755    13.1096 </r>
       <r>     9.9731     1.0915    13.1968 </r>
       <r>    10.0530     0.8315    13.2632 </r>
       <r>    10.1329     0.3702    13.2928 </r>
       <r>    10.2127     0.1350    13.3036 </r>
       <r>    10.2926     0.2431    13.3230 </r>
       <r>    10.3725     0.4414    13.3582 </r>
       <r>    10.4524     0.3708    13.3879 </r>
       <r>    10.5323     0.1343    13.3986 </r>
       <r>    10.6122     0.0353    13.4014 </r>
       <r>    10.6921     0.1296    13.4118 </r>
       <r>    10.7720     0.3686    13.4412 </r>
       <r>    10.8519     0.6556    13.4936 </r>
       <r>    10.9318     0.7951    13.5571 </r>
       <r>    11.0116     0.5302    13.5995 </r>
       <r>    11.0915     0.4155    13.6327 </r>
       <r>    11.1714     0.5528    13.6768 </r>
       <r>    11.2513     0.6082    13.7254 </r>
       <r>    11.3312     0.5291    13.7677 </r>
       <r>    11.4111     0.5178    13.8090 </r>
       <r>    11.4910     0.5363    13.8519 </r>
       <r>    11.5709     0.4395    13.8870 </r>
       <r>    11.6508     0.3168    13.9123 </r>
       <r>    11.7307     0.3729    13.9421 </r>
       <r>    11.8106     0.5486    13.9859 </r>
       <r>    11.8904     0.7221    14.0436 </r>
       <r>    11.9703     0.5686    14.0890 </r>
       <r>    12.0502     0.3874    14.1200 </r>
       <r>    12.1301     0.3012    14.1441 </r>
       <r>    12.2100     0.2494    14.1640 </r>
       <r>    12.2899     0.2784    14.1862 </r>
       <r>    12.3698     0.1462    14.1979 </r>
       <r>    12.4497     0.0274    14.2001 </r>
       <r>    12.5296     0.0390    14.2032 </r>
       <r>    12.6095     0.1786    14.2175 </r>
       <r>    12.6893     0.2907    14.2407 </r>
       <r>    12.7692     0.3719    14.2704 </r>
       <r>    12.8491     0.7434    14.3298 </r>
       <r>    12.9290     0.7377    14.3887 </r>
       <r>    13.0089     0.5385    14.4318 </r>
       <r>    13.0888     0.5495    14.4757 </r>
       <r>    13.1687     0.2680    14.4971 </r>
       <r>    13.2486     0.1317    14.5076 </r>
       <r>    13.3285     0.5117    14.5485 </r>
       <r>    13.4084     1.0916    14.6357 </r>
       <r>    13.4883     1.0574    14.7202 </r>
       <r>    13.5681     0.7583    14.7807 </r>
       <r>    13.6480     0.6676    14.8341 </r>
       <r>    13.7279     0.5148    14.8752 </r>
       <r>    13.8078     0.5041    14.9155 </r>
       <r>    13.8877     0.6704    14.9690 </r>
       <r>    13.9676     0.6496    15.0209 </r>
       <r>    14.0475     0.4961    15.0606 </r>
       <r>    14.1274     0.3473    15.0883 </r>
       <r>    14.2073     0.1787    15.1026 </r>
       <r>    14.2872     0.2329    15.1212 </r>
       <r>    14.3670     0.3857    15.1520 </r>
       <r>    14.4469     0.4078    15.1846 </r>
       <r>    14.5268     0.3661    15.2138 </r>
       <r>    14.6067     0.3146    15.2390 </r>
       <r>    14.6866     0.2371    15.2579 </r>
       <r>    14.7665     0.4052    15.2903 </r>
       <r>    14.8464     0.7515    15.3503 </r>
       <r>    14.9263     0.8494    15.4182 </r>
       <r>    15.0062     0.6189    15.4676 </r>
       <r>    15.0861     0.5880    15.5146 </r>
       <r>    15.1660     0.4120    15.5475 </r>
       <r>    15.2458     0.3324    15.5741 </r>
       <r>    15.3257     0.5154    15.6153 </r>
       <r>    15.4056     0.5667    15.6605 </r>
       <r>    15.4855     0.7629    15.7215 </r>
       <r>    15.5654     1.3689    15.8308 </r>
       <r>    15.6453     1.4415    15.9460 </r>
       <r>    15.7252     0.5900    15.9931 </r>
       <r>    15.8051     0.0821    15.9997 </r>
       <r>    15.8850     0.0036    16.0000 </r>
       <r>    15.9649     0.0000    16.0000 </r>
       <r>    16.0447     0.0000    16.0000 </r>
       <r>    16.1246     0.0000    16.0000 </r>
       <r>    16.2045     0.0000    16.0000 </r>
       <r>    16.2844     0.0000    16.0000 </r>
       <r>    16.3643     0.0000    16.0000 </r>
       <r>    16.4442     0.0000    16.0000 </r>
       <r>    16.5241     0.0000    16.0000 </r>
       <r>    16.6040     0.0000    16.0000 </r>
       <r>    16.6839     0.0000    16.0000 </r>
      </set>
     </set>
    </array>
   </total>
   <partial>
    <array>
     <dimension dim="1">gridpoints</dimension>
     <dimension dim="2">spin</dimension>
     <dimension dim="3">ion</dimension>
     <field>energy</field>
     <field>    s</field>
     <field>   py</field>
     <field>   pz</field>
     <field>   px</field>
     <field>  dxy</field>
     <field>  dyz</field>
     <field>  dz2</field>
     <field>  dxz</field>
     <field>x2-y2</field>
     <set>
      <set comment="ion 1">
       <set comment="spin 1">
        <r>    -7.2833     0.0000     0.0000     0.0000     0.0000     0.0000     0.0000     0.0000     0.0000     0.0000 </r>
        <r>    -7.2034     0.0000     0.0000     0.0000     0.0000     0.0000     0.0000     0.0000     0.0000     0.0000 </r>
        <r>    -7.1235     0.0000     0.0000     0.0000     0.0000     0.0000     0.0000     0.0000     0.0000     0.0000 </r>
        <r>    -7.0436     0.0000     0.0000     0.0000     0.0000     0.0000     0.0000     0.0000     0.0000     0.0000 </r>
        <r>    -6.9637     0.0000     0.0000     0.0000     0.0000     0.0000     0.0000     0.0000     0.0000     0.0000 </r>
        <r>    -6.8838     0.0000     0.0000     0.0000     0.0000     0.0000     0.0000     0.0000     0.0000     0.0000 </r>
        <r>    -6.8039     0.0000     0.0000     0.0000     0.0000     0.0000     0.0000     0.0000     0.0000     0.0000 </r>
        <r>    -6.7240     0.0000     0.0000     0.0000     0.0000     0.0000     0.0000     0.0000     0.0000     0.0000 </r>
        <r>    -6.6441     0.0000     0.0000     0.0000     0.0000     0.0000     0.0000     0.0000     0.0000     0.0000 </r>
        <r>    -6.5643     0.0000     0.0000     0.0000     0.0000     0.0000     0.0000     0.0000     0.0000     0.0000 </r>
        <r>    -6.4844     0.0000     0.0000     0.0000     0.0000     0.0000     0.0000     0.0000     0.0000     0.0000 </r>
        <r>    -6.4045     0.0006     0.0000     0.0000     0.0000     0.0000     0.0000     0.0000     0.0000     0.0000 </r>
        <r>    -6.3246     0.0144     0.0000     0.0000     0.0000     0.0000     0.0000     0.0000     0.0000     0.0000 </r>
        <r>    -6.2447     0.1104     0.0000     0.0000     0.0000     0.0000     0.0000     0.0000     0.0000     0.0000 </r>
        <r>    -6.1648     0.2959     0.0001     0.0002     0.0000     0.0000     0.0000     0.0000     0.0000     0.0000 </r>
        <r>    -6.0849     0.3179     0.0002     0.0005     0.0001     0.0000     0.0000     0.0000     0.0000     0.0000 </r>
        <r>    -6.0050     0.2208     0.0004     0.0009     0.0002     0.0000     0.0000     0.0000     0.0000     0.0000 </r>
        <r>    -5.9251     0.1737     0.0005     0.0012     0.0002     0.0000     0.0000     0.0000     0.0000     0.0000 </r>
        <r>    -5.8452     0.1206     0.0005     0.0009     0.0003     0.0000     0.0000     0.0000     0.0000     0.0000 </r>
        <r>    -5.7653     0.1002     0.0005     0.0012     0.0003     0.0000     0.0000     0.0000     0.0000     0.0000 </r>
        <r>    -5.6855     0.1204     0.0007     0.0021     0.0002     0.0000     0.0000     0.0000     0.0000     0.0000 </r>
        <r>    -5.6056     0.1255     0.0011     0.0019     0.0004     0.0000     0.0000     0.0000     0.0000     0.0000 </r>
        <r>    -5.5257     0.0886     0.0009     0.0011     0.0006     0.0000     0.0000     0.0000     0.0000     0.0000 </r>
        <r>    -5.4458     0.0458     0.0004     0.0009     0.0003     0.0000     0.0000     0.0000     0.0000     0.0000 </r>
        <r>    -5.3659     0.0601     0.0003     0.0022     0.0001     0.0000     0.0000     0.0000     0.0000     0.0000 </r>
        <r>    -5.2860     0.1169     0.0012     0.0036     0.0004     0.0000     0.0000     0.0000     0.0000     0.0000 </r>
        <r>    -5.2061     0.1311     0.0021     0.0030     0.0009     0.0000     0.0000     0.0000     0.0000     0.0000 </r>
        <r>    -5.1262     0.0659     0.0011     0.0012     0.0006     0.0000     0.0000     0.0000     0.0000     0.0000 </r>
        <r>    -5.0463     0.0136     0.0002     0.0003     0.0001     0.0000     0.0000     0.0000     0.0000     0.0000 </r>
        <r>    -4.9664     0.0203     0.0001     0.0011     0.0001     0.0000     0.0000     0.0000     0.0000     0.0000 </r>
        <r>    -4.8866     0.0817     0.0007     0.0040     0.0006     0.0000     0.0000     0.0000     0.0000     0.0000 </r>
        <r>    -4.8067     0.1344     0.0020     0.0054     0.0012     0.0000     0.0000     0.0000     0.0000     0.0000 </r>
        <r>    -4.7268     0.1058     0.0024     0.0035     0.0009     0.0000     0.0000     0.0000     0.0000     0.0000 </r>
        <r>    -4.6469     0.0420     0.0012     0.0013     0.0003     0.0000     0.0000     0.0000     0.0000     0.0000 </r>
        <r>    -4.5670     0.0103     0.0003     0.0003     0.0001     0.0000     0.0000     0.0000     0.0000     0.0000 </r>
        <r>    -4.4871     0.0260     0.0006     0.0007     0.0005     0.0000     0.0000     0.0000     0.0000     0.0000 </r>
        <r>    -4.4072     0.0690     0.0013     0.0026     0.0012     0.0000     0.0000     0.0000     0.0000     0.0000 </r>
        <r>    -4.3273     0.0886     0.0010     0.0055     0.0009     0.0000     0.0000     0.0000     0.0000     0.0000 </r>
        <r>    -4.2474     0.0819     0.0011     0.0060     0.0005     0.0000     0.0000     0.0000     0.0000     0.0000 </r>
        <r>    -4.1675     0.0822     0.0024     0.0041     0.0008     0.0000     0.0000     0.0000     0.0000     0.0000 </r>
        <r>    -4.0876     0.0870     0.0026     0.0028     0.0014     0.0000     0.0000     0.0000     0.0000     0.0000 </r>
        <r>    -4.0078     0.0777     0.0018     0.0019     0.0016     0.0000     0.0000     0.0000     0.0000     0.0000 </r>
        <r>    -3.9279     0.0693     0.0014     0.0014     0.0014     0.0000     0.0000     0.0000     0.0000     0.0000 </r>
        <r>    -3.8480     0.0608     0.0012     0.0013     0.0012     0.0000     0.0000     0.0000     0.0000     0.0000 </r>
        <r>    -3.7681     0.0325     0.0005     0.0017     0.0005     0.0000     0.0000     0.0000     0.0000     0.0000 </r>
        <r>    -3.6882     0.0483     0.0003     0.0057     0.0002     0.0000     0.0000     0.0000     0.0000     0.0000 </r>
        <r>    -3.6083     0.0869     0.0015     0.0086     0.0009     0.0000     0.0000     0.0000     0.0000     0.0000 </r>
        <r>    -3.5284     0.0787     0.0024     0.0055     0.0015     0.0000     0.0000     0.0000     0.0000     0.0000 </r>
        <r>    -3.4485     0.0322     0.0012     0.0016     0.0008     0.0000     0.0000     0.0000     0.0000     0.0000 </r>
        <r>    -3.3686     0.0049     0.0002     0.0002     0.0001     0.0000     0.0000     0.0000     0.0000     0.0000 </r>
        <r>    -3.2887     0.0002     0.0000     0.0000     0.0000     0.0000     0.0000     0.0000     0.0000     0.0000 </r>
        <r>    -3.2089     0.0002     0.0000     0.0000     0.0000     0.0000     0.0000     0.0000     0.0000     0.0000 </r>
        <r>    -3.1290     0.0037     0.0001     0.0002     0.0002     0.0000     0.0000     0.0000     0.0000     0.0000 </r>
        <r>    -3.0491     0.0301     0.0009     0.0019     0.0014     0.0000     0.0000     0.0000     0.0000     0.0000 </r>
        <r>    -2.9692     0.0863     0.0020     0.0075     0.0031     0.0000     0.0000     0.0000     0.0000     0.0000 </r>
        <r>    -2.8893     0.0933     0.0015     0.0110     0.0023     0.0000     0.0000     0.0000     0.0000     0.0000 </r>
        <r>    -2.8094     0.0385     0.0003     0.0056     0.0005     0.0000     0.0000     0.0000     0.0000     0.0000 </r>
        <r>    -2.7295     0.0065     0.0000     0.0010     0.0001     0.0000     0.0000     0.0000     0.0000     0.0000 </r>
        <r>    -2.6496     0.0132     0.0003     0.0009     0.0008     0.0000     0.0000     0.0000     0.0000     0.0000 </r>
        <r>    -2.5697     0.0707     0.0016     0.0047     0.0045     0.0000     0.0000     0.0000     0.0000     0.0000 </r>
        <r>    -2.4898     0.1360     0.0029     0.0102     0.0077     0.0000     0.0000     0.0000     0.0000     0.0000 </r>
        <r>    -2.4099     0.1324     0.0025     0.0135     0.0051     0.0000     0.0000     0.0000     0.0000     0.0000 </r>
        <r>    -2.3301     0.1323     0.0019     0.0186     0.0023     0.0000     0.0000     0.0000     0.0000     0.0000 </r>
        <r>    -2.2502     0.1949     0.0016     0.0344     0.0016     0.0000     0.0000     0.0000     0.0000     0.0000 </r>
        <r>    -2.1703     0.3934     0.0013     0.0819     0.0013     0.0000     0.0000     0.0000     0.0000     0.0000 </r>
        <r>    -2.0904     0.5891     0.0009     0.1309     0.0009     0.0000     0.0000     0.0000     0.0000     0.0000 </r>
        <r>    -2.0105     0.4359     0.0008     0.0992     0.0008     0.0000     0.0000     0.0000     0.0000     0.0000 </r>
        <r>    -1.9306     0.2070     0.0011     0.0477     0.0011     0.0000     0.0000     0.0000     0.0000     0.0000 </r>
        <r>    -1.8507     0.1268     0.0013     0.0294     0.0013     0.0000     0.0000     0.0000     0.0000     0.0000 </r>
        <r>    -1.7708     0.1033     0.0016     0.0240     0.0016     0.0000     0.0000     0.0000     0.0000     0.0000 </r>
        <r>    -1.6909     0.0920     0.0018     0.0211     0.0021     0.0000     0.0000     0.0000     0.0000     0.0000 </r>
        <r>    -1.6110     0.0962     0.0024     0.0194     0.0054     0.0000     0.0000     0.0000     0.0000     0.0000 </r>
        <r>    -1.5312     0.1155     0.0033     0.0180     0.0123     0.0000     0.0000     0.0000     0.0000     0.0000 </r>
        <r>    -1.4513     0.0870     0.0026     0.0120     0.0110     0.0000     0.0000     0.0000     0.0000     0.0000 </r>
        <r>    -1.3714     0.0307     0.0014     0.0051     0.0039     0.0000     0.0000     0.0000     0.0000     0.0000 </r>
        <r>    -1.2915     0.0413     0.0043     0.0118     0.0045     0.0000     0.0000     0.0000     0.0000     0.0000 </r>
        <r>    -1.2116     0.0812     0.0085     0.0231     0.0092     0.0000     0.0000     0.0000     0.0000     0.0000 </r>
        <r>    -1.1317     0.0754     0.0073     0.0165     0.0117     0.0000     0.0000     0.0000     0.0000     0.0000 </r>
        <r>    -1.0518     0.0722     0.0083     0.0101     0.0168     0.0000     0.0000     0.0000     0.0000     0.0000 </r>
        <r>    -0.9719     0.0577     0.0100     0.0101     0.0153     0.0000     0.0000     0.0000     0.0000     0.0000 </r>
        <r>    -0.8920     0.0218     0.0051     0.0051     0.0062     0.0000     0.0000     0.0000     0.0000     0.0000 </r>
        <r>    -0.8121     0.0032     0.0009     0.0009     0.0010     0.0000     0.0000     0.0000     0.0000     0.0000 </r>
        <r>    -0.7322     0.0002     0.0001     0.0001     0.0001     0.0000     0.0000     0.0000     0.0000     0.0000 </r>
        <r>    -0.6524     0.0021     0.0002     0.0002     0.0005     0.0000     0.0000     0.0000     0.0000     0.0000 </r>
        <r>    -0.5725     0.0180     0.0019     0.0019     0.0044     0.0000     0.0000     0.0000     0.0000     0.0000 </r>
        <r>    -0.4926     0.0534     0.0069     0.0072     0.0133     0.0000     0.0000     0.0000     0.0000     0.0000 </r>
        <r>    -0.4127     0.0708     0.0111     0.0146     0.0163     0.0000     0.0000     0.0000     0.0000     0.0000 </r>
        <r>    -0.3328     0.0691     0.0075     0.0210     0.0088     0.0000     0.0000     0.0000     0.0000     0.0000 </r>
        <r>    -0.2529     0.0530     0.0019     0.0183     0.0020     0.0000     0.0000     0.0000     0.0000     0.0000 </r>
        <r>    -0.1730     0.0186     0.0001     0.0066     0.0002     0.0000     0.0000     0.0000     0.0000     0.0000 </r>
        <r>    -0.0931     0.0022     0.0000     0.0008     0.0000     0.0000     0.0000     0.0000     0.0000     0.0000 </r>
        <r>    -0.0132     0.0003     0.0000     0.0001     0.0000     0.0000     0.0000     0.0000     0.0000     0.0000 </r>
        <r>     0.0667     0.0036     0.0005     0.0005     0.0009     0.0000     0.0000     0.0000     0.0000     0.0000 </r>
        <r>     0.1465     0.0220     0.0031     0.0031     0.0055     0.0000     0.0000     0.0000     0.0000     0.0000 </r>
        <r>     0.2264     0.0436     0.0065     0.0065     0.0110     0.0000     0.0000     0.0000     0.0000     0.0000 </r>
        <r>     0.3063     0.0383     0.0078     0.0078     0.0105     0.0000     0.0000     0.0000     0.0000     0.0000 </r>
        <r>     0.3862     0.0330     0.0097     0.0097     0.0102     0.0000     0.0000     0.0000     0.0000     0.0000 </r>
        <r>     0.4661     0.0200     0.0062     0.0065     0.0062     0.0000     0.0000     0.0000     0.0000     0.0000 </r>
        <r>     0.5460     0.0128     0.0013     0.0051     0.0013     0.0000     0.0000     0.0000     0.0000     0.0000 </r>
        <r>     0.6259     0.0354     0.0001     0.0156     0.0001     0.0000     0.0000     0.0000     0.0000     0.0000 </r>
        <r>     0.7058     0.0450     0.0000     0.0198     0.0000     0.0000     0.0000     0.0000     0.0000     0.0000 </r>
        <r>     0.7857     0.0183     0.0000     0.0081     0.0000     0.0000     0.0000     0.0000     0.0000     0.0000 </r>
        <r>     0.8656     0.0041     0.0004     0.0014     0.0005     0.0000     0.0000     0.0000     0.0000     0.0000 </r>
        <r>     0.9455     0.0145     0.0030     0.0031     0.0037     0.0000     0.0000     0.0000     0.0000     0.0000 </r>
        <r>     1.0253     0.0361     0.0076     0.0076     0.0093     0.0000     0.0000     0.0000     0.0000     0.0000 </r>
        <r>     1.1052     0.0294     0.0064     0.0064     0.0077     0.0000     0.0000     0.0000     0.0000     0.0000 </r>
        <r>     1.1851     0.0152     0.0054     0.0054     0.0060     0.0000     0.0000     0.0000     0.0000     0.0000 </r>
        <r>     1.2650     0.0250     0.0158     0.0157     0.0174     0.0000     0.0000     0.0000     0.0000     0.0000 </r>
        <r>     1.3449     0.0240     0.0293     0.0283     0.0319     0.0000     0.0000     0.0000     0.0000     0.0000 </r>
        <r>     1.4248     0.0083     0.0406     0.0369     0.0414     0.0000     0.0000     0.0000     0.0000     0.0000 </r>
        <r>     1.5047     0.0071     0.0463     0.0418     0.0500     0.0000     0.0000     0.0000     0.0000     0.0000 </r>
        <r>     1.5846     0.0274     0.0375     0.0427     0.0445     0.0000     0.0000     0.0000     0.0000     0.0000 </r>
        <r>     1.6645     0.0452     0.0253     0.0400     0.0284     0.0000     0.0000     0.0000     0.0000     0.0000 </r>
        <r>     1.7444     0.0253     0.0206     0.0238     0.0210     0.0000     0.0000     0.0000     0.0000     0.0000 </r>
        <r>     1.8242     0.0090     0.0193     0.0115     0.0200     0.0000     0.0000     0.0000     0.0000     0.0000 </r>
        <r>     1.9041     0.0231     0.0310     0.0183     0.0355     0.0000     0.0000     0.0000     0.0000     0.0000 </r>
        <r>     1.9840     0.0371     0.0360     0.0253     0.0464     0.0000     0.0000     0.0000     0.0000     0.0000 </r>
        <r>     2.0639     0.0201     0.0305     0.0170     0.0380     0.0000     0.0000     0.0000     0.0000     0.0000 </r>
        <r>     2.1438     0.0079     0.0238     0.0091     0.0255     0.0000     0.0000     0.0000     0.0000     0.0000 </r>
        <r>     2.2237     0.0183     0.0234     0.0113     0.0235     0.0000     0.0000     0.0000     0.0000     0.0000 </r>
        <r>     2.3036     0.0246     0.0325     0.0146     0.0325     0.0000     0.0000     0.0000     0.0000     0.0000 </r>
        <r>     2.3835     0.0110     0.0240     0.0079     0.0242     0.0000     0.0000     0.0000     0.0000     0.0000 </r>
        <r>     2.4634     0.0042     0.0217     0.0057     0.0245     0.0000     0.0000     0.0000     0.0000     0.0000 </r>
        <r>     2.5433     0.0174     0.0322     0.0194     0.0435     0.0000     0.0000     0.0000     0.0000     0.0000 </r>
        <r>     2.6232     0.0411     0.0336     0.0372     0.0482     0.0000     0.0000     0.0000     0.0000     0.0000 </r>
        <r>     2.7030     0.0330     0.0467     0.0273     0.0527     0.0000     0.0000     0.0000     0.0000     0.0000 </r>
        <r>     2.7829     0.0091     0.1210     0.0075     0.1217     0.0000     0.0000     0.0000     0.0000     0.0000 </r>
        <r>     2.8628     0.0058     0.2573     0.0033     0.2564     0.0000     0.0000     0.0000     0.0000     0.0000 </r>
        <r>     2.9427     0.0206     0.2711     0.0100     0.2671     0.0000     0.0000     0.0000     0.0000     0.0000 </r>
        <r>     3.0226     0.0268     0.1942     0.0129     0.1889     0.0000     0.0000     0.0000     0.0000     0.0000 </r>
        <r>     3.1025     0.0115     0.1365     0.0067     0.1337     0.0000     0.0000     0.0000     0.0000     0.0000 </r>
        <r>     3.1824     0.0067     0.1088     0.0139     0.1040     0.0000     0.0000     0.0000     0.0000     0.0000 </r>
        <r>     3.2623     0.0192     0.1404     0.0414     0.1312     0.0000     0.0000     0.0000     0.0000     0.0000 </r>
        <r>     3.3422     0.0222     0.1165     0.0419     0.1126     0.0000     0.0000     0.0000     0.0000     0.0000 </r>
        <r>     3.4221     0.0090     0.0380     0.0159     0.0371     0.0000     0.0000     0.0000     0.0000     0.0000 </r>
        <r>     3.5019     0.0095     0.0267     0.0210     0.0159     0.0000     0.0000     0.0000     0.0000     0.0000 </r>
        <r>     3.5818     0.0284     0.0696     0.0548     0.0434     0.0000     0.0000     0.0000     0.0000     0.0000 </r>
        <r>     3.6617     0.0297     0.0685     0.0498     0.0486     0.0000     0.0000     0.0000     0.0000     0.0000 </r>
        <r>     3.7416     0.0098     0.0223     0.0149     0.0173     0.0000     0.0000     0.0000     0.0000     0.0000 </r>
        <r>     3.8215     0.0011     0.0068     0.0052     0.0028     0.0000     0.0000     0.0000     0.0000     0.0000 </r>
        <r>     3.9014     0.0010     0.0292     0.0192     0.0119     0.0000     0.0000     0.0000     0.0000     0.0000 </r>
        <r>     3.9813     0.0079     0.0766     0.0365     0.0549     0.0000     0.0000     0.0000     0.0000     0.0000 </r>
        <r>     4.0612     0.0210     0.0878     0.0368     0.0886     0.0000     0.0000     0.0000     0.0000     0.0000 </r>
        <r>     4.1411     0.0179     0.0427     0.0221     0.0513     0.0000     0.0000     0.0000     0.0000     0.0000 </r>
        <r>     4.2210     0.0090     0.0156     0.0130     0.0145     0.0000     0.0000     0.0000     0.0000     0.0000 </r>
        <r>     4.3008     0.0141     0.0341     0.0331     0.0162     0.0000     0.0000     0.0000     0.0000     0.0000 </r>
        <r>     4.3807     0.0151     0.0719     0.0632     0.0438     0.0000     0.0000     0.0000     0.0000     0.0000 </r>
        <r>     4.4606     0.0155     0.1343     0.1105     0.1203     0.0000     0.0000     0.0000     0.0000     0.0000 </r>
        <r>     4.5405     0.0242     0.1600     0.1503     0.1576     0.0000     0.0000     0.0000     0.0000     0.0000 </r>
        <r>     4.6204     0.0159     0.1064     0.1148     0.1029     0.0000     0.0000     0.0000     0.0000     0.0000 </r>
        <r>     4.7003     0.0035     0.0810     0.0845     0.0688     0.0000     0.0000     0.0000     0.0000     0.0000 </r>
        <r>     4.7802     0.0008     0.0813     0.0812     0.0793     0.0000     0.0000     0.0000     0.0000     0.0000 </r>
        <r>     4.8601     0.0007     0.0688     0.0630     0.0889     0.0000     0.0000     0.0000     0.0000     0.0000 </r>
        <r>     4.9400     0.0006     0.0740     0.0421     0.0834     0.0000     0.0000     0.0000     0.0000     0.0000 </r>
        <r>     5.0199     0.0032     0.1155     0.0605     0.0990     0.0000     0.0000     0.0000     0.0000     0.0000 </r>
        <r>     5.0998     0.0099     0.1134     0.0836     0.0669     0.0000     0.0000     0.0000     0.0000     0.0000 </r>
        <r>     5.1796     0.0139     0.0906     0.0915     0.0522     0.0000     0.0000     0.0000     0.0000     0.0000 </r>
        <r>     5.2595     0.0157     0.0740     0.1043     0.0604     0.0000     0.0000     0.0000     0.0000     0.0000 </r>
        <r>     5.3394     0.0139     0.0733     0.1133     0.0693     0.0000     0.0000     0.0000     0.0000     0.0000 </r>
        <r>     5.4193     0.0059     0.1172     0.1003     0.1335     0.0000     0.0000     0.0000     0.0000     0.0000 </r>
        <r>     5.4992     0.0009     0.1387     0.0888     0.1409     0.0000     0.0000     0.0000     0.0000     0.0000 </r>
        <r>     5.5791     0.0001     0.1770     0.1555     0.1380     0.0000     0.0000     0.0000     0.0000     0.0000 </r>
        <r>     5.6590     0.0000     0.2443     0.2416     0.2025     0.0000     0.0000     0.0000     0.0000     0.0000 </r>
        <r>     5.7389     0.0000     0.1603     0.1602     0.1427     0.0000     0.0000     0.0000     0.0000     0.0000 </r>
        <r>     5.8188     0.0000     0.0372     0.0372     0.0344     0.0000     0.0000     0.0000     0.0000     0.0000 </r>
        <r>     5.8987     0.0000     0.0028     0.0028     0.0027     0.0000     0.0000     0.0000     0.0000     0.0000 </r>
        <r>     5.9785     0.0000     0.0001     0.0001     0.0001     0.0000     0.0000     0.0000     0.0000     0.0000 </r>
        <r>     6.0584     0.0001     0.0000     0.0001     0.0000     0.0000     0.0000     0.0000     0.0000     0.0000 </r>
        <r>     6.1383     0.0019     0.0000     0.0016     0.0000     0.0000     0.0000     0.0000     0.0000     0.0000 </r>
        <r>     6.2182     0.0138     0.0000     0.0119     0.0000     0.0000     0.0000     0.0000     0.0000     0.0000 </r>
        <r>     6.2981     0.0433     0.0000     0.0361     0.0000     0.0000     0.0000     0.0000     0.0000     0.0000 </r>
        <r>     6.3780     0.0941     0.0001     0.0744     0.0001     0.0000     0.0000     0.0000     0.0000     0.0000 </r>
        <r>     6.4579     0.1334     0.0005     0.1020     0.0005     0.0000     0.0000     0.0000     0.0000     0.0000 </r>
        <r>     6.5378     0.1007     0.0008     0.0766     0.0008     0.0000     0.0000     0.0000     0.0000     0.0000 </r>
        <r>     6.6177     0.0735     0.0014     0.0604     0.0014     0.0000     0.0000     0.0000     0.0000     0.0000 </r>
        <r>     6.6976     0.0735     0.0020     0.0626     0.0021     0.0000     0.0000     0.0000     0.0000     0.0000 </r>
        <r>     6.7775     0.0540     0.0013     0.0423     0.0030     0.0000     0.0000     0.0000     0.0000     0.0000 </r>
        <r>     6.8573     0.0441     0.0014     0.0283     0.0088     0.0000     0.0000     0.0000     0.0000     0.0000 </r>
        <r>     6.9372     0.0503     0.0031     0.0361     0.0136     0.0000     0.0000     0.0000     0.0000     0.0000 </r>
        <r>     7.0171     0.0514     0.0036     0.0387     0.0084     0.0000     0.0000     0.0000     0.0000     0.0000 </r>
        <r>     7.0970     0.0901     0.0038     0.0251     0.0051     0.0000     0.0000     0.0000     0.0000     0.0000 </r>
        <r>     7.1769     0.1445     0.0057     0.0156     0.0106     0.0000     0.0000     0.0000     0.0000     0.0000 </r>
        <r>     7.2568     0.1333     0.0074     0.0156     0.0188     0.0000     0.0000     0.0000     0.0000     0.0000 </r>
        <r>     7.3367     0.1025     0.0090     0.0317     0.0175     0.0000     0.0000     0.0000     0.0000     0.0000 </r>
        <r>     7.4166     0.0742     0.0070     0.0360     0.0090     0.0000     0.0000     0.0000     0.0000     0.0000 </r>
        <r>     7.4965     0.0548     0.0046     0.0170     0.0052     0.0000     0.0000     0.0000     0.0000     0.0000 </r>
        <r>     7.5764     0.0529     0.0043     0.0080     0.0083     0.0000     0.0000     0.0000     0.0000     0.0000 </r>
        <r>     7.6562     0.0599     0.0056     0.0181     0.0176     0.0000     0.0000     0.0000     0.0000     0.0000 </r>
        <r>     7.7361     0.0787     0.0106     0.0439     0.0222     0.0000     0.0000     0.0000     0.0000     0.0000 </r>
        <r>     7.8160     0.0540     0.0094     0.0458     0.0129     0.0000     0.0000     0.0000     0.0000     0.0000 </r>
        <r>     7.8959     0.0327     0.0062     0.0210     0.0067     0.0000     0.0000     0.0000     0.0000     0.0000 </r>
        <r>     7.9758     0.0394     0.0072     0.0156     0.0093     0.0000     0.0000     0.0000     0.0000     0.0000 </r>
        <r>     8.0557     0.0391     0.0117     0.0395     0.0220     0.0000     0.0000     0.0000     0.0000     0.0000 </r>
        <r>     8.1356     0.0506     0.0581     0.0951     0.0729     0.0000     0.0000     0.0000     0.0000     0.0000 </r>
        <r>     8.2155     0.0498     0.1561     0.1711     0.1536     0.0000     0.0000     0.0000     0.0000     0.0000 </r>
        <r>     8.2954     0.0349     0.1725     0.1752     0.1558     0.0000     0.0000     0.0000     0.0000     0.0000 </r>
        <r>     8.3753     0.0392     0.1017     0.1021     0.1100     0.0000     0.0000     0.0000     0.0000     0.0000 </r>
        <r>     8.4552     0.0579     0.0768     0.0564     0.1127     0.0000     0.0000     0.0000     0.0000     0.0000 </r>
        <r>     8.5350     0.0682     0.0868     0.0496     0.1374     0.0000     0.0000     0.0000     0.0000     0.0000 </r>
        <r>     8.6149     0.0831     0.0623     0.0442     0.1301     0.0000     0.0000     0.0000     0.0000     0.0000 </r>
        <r>     8.6948     0.1313     0.0369     0.0321     0.0847     0.0000     0.0000     0.0000     0.0000     0.0000 </r>
        <r>     8.7747     0.2607     0.0401     0.0376     0.0387     0.0000     0.0000     0.0000     0.0000     0.0000 </r>
        <r>     8.8546     0.2710     0.0449     0.0441     0.0335     0.0000     0.0000     0.0000     0.0000     0.0000 </r>
        <r>     8.9345     0.1017     0.0398     0.0394     0.0453     0.0000     0.0000     0.0000     0.0000     0.0000 </r>
        <r>     9.0144     0.0477     0.0658     0.0617     0.0830     0.0000     0.0000     0.0000     0.0000     0.0000 </r>
        <r>     9.0943     0.1319     0.1271     0.1069     0.1336     0.0000     0.0000     0.0000     0.0000     0.0000 </r>
        <r>     9.1742     0.1966     0.1557     0.1266     0.1409     0.0000     0.0000     0.0000     0.0000     0.0000 </r>
        <r>     9.2541     0.1553     0.1020     0.0916     0.0817     0.0000     0.0000     0.0000     0.0000     0.0000 </r>
        <r>     9.3339     0.0827     0.0318     0.0316     0.0251     0.0000     0.0000     0.0000     0.0000     0.0000 </r>
        <r>     9.4138     0.0245     0.0057     0.0058     0.0162     0.0000     0.0000     0.0000     0.0000     0.0000 </r>
        <r>     9.4937     0.0098     0.0030     0.0030     0.0273     0.0000     0.0000     0.0000     0.0000     0.0000 </r>
        <r>     9.5736     0.0061     0.0025     0.0027     0.0178     0.0000     0.0000     0.0000     0.0000     0.0000 </r>
[...]
       </set>
       <set comment="band 5">
        <r>  0.0530  0.0008  0.0411  0.0008  0.0000  0.0000  0.0000  0.0000  0.0000 </r>
        <r>  0.0530  0.0008  0.0411  0.0008  0.0000  0.0000  0.0000  0.0000  0.0000 </r>
       </set>
       <set comment="band 6">
        <r>  0.0245  0.0360  0.0151  0.0360  0.0000  0.0000  0.0000  0.0000  0.0000 </r>
        <r>  0.0245  0.0360  0.0151  0.0360  0.0000  0.0000  0.0000  0.0000  0.0000 </r>
       </set>
       <set comment="band 7">
        <r>  0.0000  0.0803  0.0000  0.0812  0.0000  0.0000  0.0000  0.0000  0.0000 </r>
        <r>  0.0000  0.0813  0.0000  0.0803  0.0000  0.0000  0.0000  0.0000  0.0000 </r>
       </set>
       <set comment="band 8">
        <r>  0.0325  0.0004  0.1047  0.0003  0.0000  0.0000  0.0000  0.0000  0.0000 </r>
        <r>  0.0323  0.0003  0.1053  0.0003  0.0000  0.0000  0.0000  0.0000  0.0000 </r>
       </set>
      </set>
      <set comment="kpoint 31">
       <set comment="band 1">
        <r>  0.2133  0.0048  0.0048  0.0228  0.0000  0.0000  0.0000  0.0000  0.0000 </r>
        <r>  0.2133  0.0048  0.0048  0.0228  0.0000  0.0000  0.0000  0.0000  0.0000 </r>
       </set>
       <set comment="band 2">
        <r>  0.1846  0.0056  0.0056  0.0432  0.0000  0.0000  0.0000  0.0000  0.0000 </r>
        <r>  0.1846  0.0056  0.0056  0.0432  0.0000  0.0000  0.0000  0.0000  0.0000 </r>
       </set>
       <set comment="band 3">
        <r>  0.0000  0.0565  0.0565  0.0431  0.0000  0.0000  0.0000  0.0000  0.0000 </r>
        <r>  0.0000  0.0565  0.0565  0.0431  0.0000  0.0000  0.0000  0.0000  0.0000 </r>
       </set>
       <set comment="band 4">
        <r>  0.0000  0.1005  0.1005  0.0000  0.0000  0.0000  0.0000  0.0000  0.0000 </r>
        <r>  0.0000  0.1005  0.1005  0.0000  0.0000  0.0000  0.0000  0.0000  0.0000 </r>
       </set>
       <set comment="band 5">
        <r>  0.0530  0.0008  0.0008  0.0411  0.0000  0.0000  0.0000  0.0000  0.0000 </r>
        <r>  0.0530  0.0008  0.0008  0.0411  0.0000  0.0000  0.0000  0.0000  0.0000 </r>
       </set>
       <set comment="band 6">
        <r>  0.0245  0.0360  0.0360  0.0151  0.0000  0.0000  0.0000  0.0000  0.0000 </r>
        <r>  0.0245  0.0360  0.0360  0.0151  0.0000  0.0000  0.0000  0.0000  0.0000 </r>
       </set>
       <set comment="band 7">
        <r>  0.0000  0.0809  0.0808  0.0000  0.0000  0.0000  0.0000  0.0000  0.0000 </r>
        <r>  0.0000  0.0807  0.0809  0.0000  0.0000  0.0000  0.0000  0.0000  0.0000 </r>
       </set>
       <set comment="band 8">
        <r>  0.0334  0.0001  0.0001  0.1035  0.0000  0.0000  0.0000  0.0000  0.0000 </r>
        <r>  0.0311  0.0000  0.0000  0.1072  0.0000  0.0000  0.0000  0.0000  0.0000 </r>
       </set>
      </set>
      <set comment="kpoint 32">
       <set comment="band 1">
        <r>  0.2142  0.0078  0.0078  0.0120  0.0000  0.0000  0.0000  0.0000  0.0000 </r>
        <r>  0.2142  0.0078  0.0078  0.0120  0.0000  0.0000  0.0000  0.0000  0.0000 </r>
       </set>
       <set comment="band 2">
        <r>  0.1771  0.0099  0.0099  0.0420  0.0000  0.0000  0.0000  0.0000  0.0000 </r>
        <r>  0.1771  0.0099  0.0099  0.0420  0.0000  0.0000  0.0000  0.0000  0.0000 </r>
       </set>
       <set comment="band 3">
        <r>  0.0035  0.0464  0.0464  0.0594  0.0000  0.0000  0.0000  0.0000  0.0000 </r>
        <r>  0.0035  0.0464  0.0464  0.0594  0.0000  0.0000  0.0000  0.0000  0.0000 </r>
       </set>
       <set comment="band 4">
        <r>  0.0000  0.1018  0.1018  0.0000  0.0000  0.0000  0.0000  0.0000  0.0000 </r>
        <r>  0.0000  0.1018  0.1018  0.0000  0.0000  0.0000  0.0000  0.0000  0.0000 </r>
       </set>
       <set comment="band 5">
        <r>  0.0548  0.0012  0.0012  0.0453  0.0000  0.0000  0.0000  0.0000  0.0000 </r>
        <r>  0.0548  0.0012  0.0012  0.0453  0.0000  0.0000  0.0000  0.0000  0.0000 </r>
       </set>
       <set comment="band 6">
        <r>  0.0072  0.0383  0.0383  0.0015  0.0000  0.0000  0.0000  0.0000  0.0000 </r>
        <r>  0.0072  0.0382  0.0382  0.0015  0.0000  0.0000  0.0000  0.0000  0.0000 </r>
       </set>
       <set comment="band 7">
        <r>  0.0000  0.0772  0.0776  0.0000  0.0000  0.0000  0.0000  0.0000  0.0000 </r>
        <r>  0.0000  0.0775  0.0770  0.0000  0.0000  0.0000  0.0000  0.0000  0.0000 </r>
       </set>
       <set comment="band 8">
        <r>  0.0482  0.0028  0.0027  0.1214  0.0000  0.0000  0.0000  0.0000  0.0000 </r>
        <r>  0.0400  0.0050  0.0051  0.1323  0.0000  0.0000  0.0000  0.0000  0.0000 </r>
       </set>
      </set>
      <set comment="kpoint 33">
       <set comment="band 1">
        <r>  0.2116  0.0090  0.0090  0.0055  0.0000  0.0000  0.0000  0.0000  0.0000 </r>
        <r>  0.2116  0.0090  0.0090  0.0055  0.0000  0.0000  0.0000  0.0000  0.0000 </r>
       </set>
       <set comment="band 2">
        <r>  0.1675  0.0154  0.0154  0.0407  0.0000  0.0000  0.0000  0.0000  0.0000 </r>
        <r>  0.1675  0.0154  0.0154  0.0407  0.0000  0.0000  0.0000  0.0000  0.0000 </r>
       </set>
       <set comment="band 3">
        <r>  0.0093  0.0401  0.0401  0.0715  0.0000  0.0000  0.0000  0.0000  0.0000 </r>
        <r>  0.0093  0.0401  0.0401  0.0715  0.0000  0.0000  0.0000  0.0000  0.0000 </r>
       </set>
       <set comment="band 4">
        <r>  0.0000  0.1037  0.1037  0.0000  0.0000  0.0000  0.0000  0.0000  0.0000 </r>
        <r>  0.0000  0.1037  0.1037  0.0000  0.0000  0.0000  0.0000  0.0000  0.0000 </r>
       </set>
       <set comment="band 5">
        <r>  0.0585  0.0015  0.0015  0.0522  0.0000  0.0000  0.0000  0.0000  0.0000 </r>
        <r>  0.0585  0.0015  0.0015  0.0522  0.0000  0.0000  0.0000  0.0000  0.0000 </r>
       </set>
       <set comment="band 6">
        <r>  0.0000  0.0759  0.0759  0.0000  0.0000  0.0000  0.0000  0.0000  0.0000 </r>
        <r>  0.0000  0.0759  0.0759  0.0000  0.0000  0.0000  0.0000  0.0000  0.0000 </r>
       </set>
       <set comment="band 7">
        <r>  0.0242  0.0004  0.0004  0.0912  0.0000  0.0000  0.0000  0.0000  0.0000 </r>
        <r>  0.0242  0.0004  0.0004  0.0912  0.0000  0.0000  0.0000  0.0000  0.0000 </r>
       </set>
       <set comment="band 8">
        <r>  0.0709  0.0545  0.0537  0.0316  0.0000  0.0000  0.0000  0.0000  0.0000 </r>
        <r>  0.0710  0.0544  0.0537  0.0315  0.0000  0.0000  0.0000  0.0000  0.0000 </r>
       </set>
      </set>
      <set comment="kpoint 34">
       <set comment="band 1">
        <r>  0.2093  0.0083  0.0083  0.0023  0.0000  0.0000  0.0000  0.0000  0.0000 </r>
        <r>  0.2093  0.0083  0.0083  0.0023  0.0000  0.0000  0.0000  0.0000  0.0000 </r>
       </set>
       <set comment="band 2">
        <r>  0.1558  0.0219  0.0219  0.0388  0.0000  0.0000  0.0000  0.0000  0.0000 </r>
        <r>  0.1558  0.0219  0.0219  0.0388  0.0000  0.0000  0.0000  0.0000  0.0000 </r>
       </set>
       <set comment="band 3">
        <r>  0.0129  0.0365  0.0365  0.0814  0.0000  0.0000  0.0000  0.0000  0.0000 </r>
        <r>  0.0129  0.0365  0.0365  0.0814  0.0000  0.0000  0.0000  0.0000  0.0000 </r>
       </set>
       <set comment="band 4">
        <r>  0.0000  0.1059  0.1059  0.0000  0.0000  0.0000  0.0000  0.0000  0.0000 </r>
        <r>  0.0000  0.1059  0.1059  0.0000  0.0000  0.0000  0.0000  0.0000  0.0000 </r>
       </set>
       <set comment="band 5">
        <r>  0.0666  0.0013  0.0013  0.0632  0.0000  0.0000  0.0000  0.0000  0.0000 </r>
        <r>  0.0666  0.0013  0.0013  0.0632  0.0000  0.0000  0.0000  0.0000  0.0000 </r>
       </set>
       <set comment="band 6">
        <r>  0.0000  0.0754  0.0754  0.0000  0.0000  0.0000  0.0000  0.0000  0.0000 </r>
        <r>  0.0000  0.0754  0.0754  0.0000  0.0000  0.0000  0.0000  0.0000  0.0000 </r>
       </set>
       <set comment="band 7">
        <r>  0.0309  0.0008  0.0008  0.1061  0.0000  0.0000  0.0000  0.0000  0.0000 </r>
        <r>  0.0309  0.0008  0.0008  0.1061  0.0000  0.0000  0.0000  0.0000  0.0000 </r>
       </set>
       <set comment="band 8">
        <r>  0.0737  0.0488  0.0487  0.0228  0.0000  0.0000  0.0000  0.0000  0.0000 </r>
        <r>  0.0738  0.0488  0.0488  0.0228  0.0000  0.0000  0.0000  0.0000  0.0000 </r>
       </set>
      </set>
      <set comment="kpoint 35">
       <set comment="band 1">
        <r>  0.2090  0.0066  0.0066  0.0009  0.0000  0.0000  0.0000  0.0000  0.0000 </r>
        <r>  0.2090  0.0066  0.0066  0.0009  0.0000  0.0000  0.0000  0.0000  0.0000 </r>
       </set>
       <set comment="band 2">
        <r>  0.1418  0.0298  0.0298  0.0366  0.0000  0.0000  0.0000  0.0000  0.0000 </r>
        <r>  0.1418  0.0298  0.0298  0.0366  0.0000  0.0000  0.0000  0.0000  0.0000 </r>
       </set>
       <set comment="band 3">
        <r>  0.0134  0.0346  0.0346  0.0918  0.0000  0.0000  0.0000  0.0000  0.0000 </r>
        <r>  0.0134  0.0346  0.0346  0.0918  0.0000  0.0000  0.0000  0.0000  0.0000 </r>
       </set>
       <set comment="band 4">
        <r>  0.0000  0.1083  0.1083  0.0000  0.0000  0.0000  0.0000  0.0000  0.0000 </r>
        <r>  0.0000  0.1083  0.1083  0.0000  0.0000  0.0000  0.0000  0.0000  0.0000 </r>
       </set>
       <set comment="band 5">
        <r>  0.0812  0.0007  0.0007  0.0787  0.0000  0.0000  0.0000  0.0000  0.0000 </r>
        <r>  0.0812  0.0007  0.0007  0.0787  0.0000  0.0000  0.0000  0.0000  0.0000 </r>
       </set>
       <set comment="band 6">
        <r>  0.0000  0.0754  0.0754  0.0000  0.0000  0.0000  0.0000  0.0000  0.0000 </r>
        <r>  0.0000  0.0754  0.0753  0.0000  0.0000  0.0000  0.0000  0.0000  0.0000 </r>
       </set>
       <set comment="band 7">
        <r>  0.0318  0.0041  0.0041  0.1080  0.0000  0.0000  0.0000  0.0000  0.0000 </r>
        <r>  0.0318  0.0041  0.0041  0.1080  0.0000  0.0000  0.0000  0.0000  0.0000 </r>
       </set>
       <set comment="band 8">
        <r>  0.0704  0.0468  0.0469  0.0101  0.0000  0.0000  0.0000  0.0000  0.0000 </r>
        <r>  0.0704  0.0467  0.0468  0.0100  0.0000  0.0000  0.0000  0.0000  0.0000 </r>
       </set>
      </set>
      <set comment="kpoint 36">
       <set comment="band 1">
        <r>  0.2096  0.0046  0.0046  0.0003  0.0000  0.0000  0.0000  0.0000  0.0000 </r>
        <r>  0.2096  0.0046  0.0046  0.0003  0.0000  0.0000  0.0000  0.0000  0.0000 </r>
       </set>
       <set comment="band 2">
        <r>  0.1250  0.0389  0.0389  0.0336  0.0000  0.0000  0.0000  0.0000  0.0000 </r>
        <r>  0.1250  0.0389  0.0389  0.0336  0.0000  0.0000  0.0000  0.0000  0.0000 </r>
       </set>
       <set comment="band 3">
        <r>  0.0111  0.0325  0.0325  0.1052  0.0000  0.0000  0.0000  0.0000  0.0000 </r>
        <r>  0.0111  0.0325  0.0325  0.1052  0.0000  0.0000  0.0000  0.0000  0.0000 </r>
       </set>
       <set comment="band 4">
        <r>  0.0000  0.1100  0.1100  0.0000  0.0000  0.0000  0.0000  0.0000  0.0000 </r>
        <r>  0.0000  0.1100  0.1100  0.0000  0.0000  0.0000  0.0000  0.0000  0.0000 </r>
       </set>
       <set comment="band 5">
        <r>  0.0994  0.0001  0.0001  0.0931  0.0000  0.0000  0.0000  0.0000  0.0000 </r>
        <r>  0.0994  0.0001  0.0001  0.0931  0.0000  0.0000  0.0000  0.0000  0.0000 </r>
       </set>
       <set comment="band 6">
        <r>  0.0000  0.0756  0.0756  0.0000  0.0000  0.0000  0.0000  0.0000  0.0000 </r>
        <r>  0.0000  0.0756  0.0756  0.0000  0.0000  0.0000  0.0000  0.0000  0.0000 </r>
       </set>
       <set comment="band 7">
        <r>  0.0301  0.0104  0.0104  0.1024  0.0000  0.0000  0.0000  0.0000  0.0000 </r>
        <r>  0.0301  0.0104  0.0104  0.1024  0.0000  0.0000  0.0000  0.0000  0.0000 </r>
       </set>
       <set comment="band 8">
        <r>  0.0700  0.0492  0.0493  0.0004  0.0000  0.0000  0.0000  0.0000  0.0000 </r>
        <r>  0.0700  0.0492  0.0493  0.0004  0.0000  0.0000  0.0000  0.0000  0.0000 </r>
       </set>
      </set>
      <set comment="kpoint 37">
       <set comment="band 1">
        <r>  0.2109  0.0028  0.0028  0.0001  0.0000  0.0000  0.0000  0.0000  0.0000 </r>
        <r>  0.2109  0.0028  0.0028  0.0001  0.0000  0.0000  0.0000  0.0000  0.0000 </r>
       </set>
       <set comment="band 2">
        <r>  0.1042  0.0500  0.0500  0.0295  0.0000  0.0000  0.0000  0.0000  0.0000 </r>
        <r>  0.1042  0.0500  0.0500  0.0295  0.0000  0.0000  0.0000  0.0000  0.0000 </r>
       </set>
       <set comment="band 3">
        <r>  0.0071  0.0290  0.0290  0.1251  0.0000  0.0000  0.0000  0.0000  0.0000 </r>
        <r>  0.0071  0.0290  0.0290  0.1251  0.0000  0.0000  0.0000  0.0000  0.0000 </r>
       </set>
       <set comment="band 4">
        <r>  0.0000  0.1105  0.1105  0.0000  0.0000  0.0000  0.0000  0.0000  0.0000 </r>
        <r>  0.0000  0.1105  0.1105  0.0000  0.0000  0.0000  0.0000  0.0000  0.0000 </r>
       </set>
       <set comment="band 5">
        <r>  0.1096  0.0000  0.0000  0.1006  0.0000  0.0000  0.0000  0.0000  0.0000 </r>
        <r>  0.1096  0.0000  0.0000  0.1006  0.0000  0.0000  0.0000  0.0000  0.0000 </r>
       </set>
       <set comment="band 6">
        <r>  0.0000  0.0759  0.0759  0.0000  0.0000  0.0000  0.0000  0.0000  0.0000 </r>
        <r>  0.0000  0.0759  0.0759  0.0000  0.0000  0.0000  0.0000  0.0000  0.0000 </r>
       </set>
       <set comment="band 7">
        <r>  0.0250  0.0215  0.0215  0.0883  0.0000  0.0000  0.0000  0.0000  0.0000 </r>
        <r>  0.0250  0.0215  0.0215  0.0883  0.0000  0.0000  0.0000  0.0000  0.0000 </r>
       </set>
       <set comment="band 8">
        <r>  0.1028  0.0562  0.0562  0.0055  0.0000  0.0000  0.0000  0.0000  0.0000 </r>
        <r>  0.1028  0.0562  0.0562  0.0055  0.0000  0.0000  0.0000  0.0000  0.0000 </r>
       </set>
      </set>
      <set comment="kpoint 38">
       <set comment="band 1">
        <r>  0.2122  0.0013  0.0013  0.0000  0.0000  0.0000  0.0000  0.0000  0.0000 </r>
        <r>  0.2122  0.0013  0.0013  0.0000  0.0000  0.0000  0.0000  0.0000  0.0000 </r>
       </set>
       <set comment="band 2">
        <r>  0.0766  0.0648  0.0648  0.0234  0.0000  0.0000  0.0000  0.0000  0.0000 </r>
        <r>  0.0766  0.0648  0.0648  0.0234  0.0000  0.0000  0.0000  0.0000  0.0000 </r>
       </set>
       <set comment="band 3">
        <r>  0.0028  0.0212  0.0212  0.1549  0.0000  0.0000  0.0000  0.0000  0.0000 </r>
        <r>  0.0028  0.0212  0.0212  0.1549  0.0000  0.0000  0.0000  0.0000  0.0000 </r>
       </set>
       <set comment="band 4">
        <r>  0.0000  0.1101  0.1101  0.0000  0.0000  0.0000  0.0000  0.0000  0.0000 </r>
        <r>  0.0000  0.1101  0.1101  0.0000  0.0000  0.0000  0.0000  0.0000  0.0000 </r>
       </set>
       <set comment="band 5">
        <r>  0.0000  0.0764  0.0764  0.0000  0.0000  0.0000  0.0000  0.0000  0.0000 </r>
        <r>  0.0000  0.0764  0.0764  0.0000  0.0000  0.0000  0.0000  0.0000  0.0000 </r>
       </set>
       <set comment="band 6">
        <r>  0.1023  0.0003  0.0003  0.1071  0.0000  0.0000  0.0000  0.0000  0.0000 </r>
        <r>  0.1023  0.0003  0.0003  0.1071  0.0000  0.0000  0.0000  0.0000  0.0000 </r>
       </set>
       <set comment="band 7">
        <r>  0.0164  0.0395  0.0395  0.0618  0.0000  0.0000  0.0000  0.0000  0.0000 </r>
        <r>  0.0164  0.0395  0.0395  0.0618  0.0000  0.0000  0.0000  0.0000  0.0000 </r>
       </set>
       <set comment="band 8">
        <r>  0.1706  0.0475  0.0475  0.0181  0.0000  0.0000  0.0000  0.0000  0.0000 </r>
        <r>  0.1706  0.0475  0.0475  0.0181  0.0000  0.0000  0.0000  0.0000  0.0000 </r>
       </set>
      </set>
      <set comment="kpoint 39">
       <set comment="band 1">
        <r>  0.2131  0.0003  0.0003  0.0000  0.0000  0.0000  0.0000  0.0000  0.0000 </r>
        <r>  0.2131  0.0003  0.0003  0.0000  0.0000  0.0000  0.0000  0.0000  0.0000 </r>
       </set>
       <set comment="band 2">
        <r>  0.0366  0.0874  0.0874  0.0124  0.0000  0.0000  0.0000  0.0000  0.0000 </r>
        <r>  0.0366  0.0874  0.0874  0.0124  0.0000  0.0000  0.0000  0.0000  0.0000 </r>
       </set>
       <set comment="band 3">
        <r>  0.0003  0.0085  0.0085  0.1940  0.0000  0.0000  0.0000  0.0000  0.0000 </r>
        <r>  0.0003  0.0085  0.0085  0.1940  0.0000  0.0000  0.0000  0.0000  0.0000 </r>
       </set>
       <set comment="band 4">
        <r>  0.0000  0.1091  0.1091  0.0000  0.0000  0.0000  0.0000  0.0000  0.0000 </r>
        <r>  0.0000  0.1091  0.1091  0.0000  0.0000  0.0000  0.0000  0.0000  0.0000 </r>
       </set>
       <set comment="band 5">
        <r>  0.0000  0.0765  0.0765  0.0000  0.0000  0.0000  0.0000  0.0000  0.0000 </r>
        <r>  0.0000  0.0765  0.0765  0.0000  0.0000  0.0000  0.0000  0.0000  0.0000 </r>
       </set>
       <set comment="band 6">
        <r>  0.0058  0.0629  0.0629  0.0235  0.0000  0.0000  0.0000  0.0000  0.0000 </r>
        <r>  0.0058  0.0629  0.0629  0.0235  0.0000  0.0000  0.0000  0.0000  0.0000 </r>
       </set>
       <set comment="band 7">
        <r>  0.0496  0.0019  0.0019  0.1280  0.0000  0.0000  0.0000  0.0000  0.0000 </r>
        <r>  0.0496  0.0019  0.0019  0.1280  0.0000  0.0000  0.0000  0.0000  0.0000 </r>
       </set>
       <set comment="band 8">
        <r>  0.2731  0.0205  0.0205  0.0121  0.0000  0.0000  0.0000  0.0000  0.0000 </r>
        <r>  0.2731  0.0205  0.0205  0.0121  0.0000  0.0000  0.0000  0.0000  0.0000 </r>
       </set>
      </set>
      <set comment="kpoint 40">
       <set comment="band 1">
        <r>  0.2134  0.0000  0.0000  0.0000  0.0000  0.0000  0.0000  0.0000  0.0000 </r>
        <r>  0.2134  0.0000  0.0000  0.0000  0.0000  0.0000  0.0000  0.0000  0.0000 </r>
       </set>
       <set comment="band 2">
        <r>  0.0000  0.0725  0.0725  0.0724  0.0000  0.0000  0.0000  0.0000  0.0000 </r>
        <r>  0.0000  0.0725  0.0725  0.0724  0.0000  0.0000  0.0000  0.0000  0.0000 </r>
       </set>
       <set comment="band 3">
        <r>  0.0000  0.0959  0.0948  0.0267  0.0000  0.0000  0.0000  0.0000  0.0000 </r>
        <r>  0.0000  0.0959  0.0948  0.0267  0.0000  0.0000  0.0000  0.0000  0.0000 </r>
       </set>
       <set comment="band 4">
        <r>  0.0000  0.0490  0.0501  0.1183  0.0000  0.0000  0.0000  0.0000  0.0000 </r>
        <r>  0.0000  0.0490  0.0501  0.1183  0.0000  0.0000  0.0000  0.0000  0.0000 </r>
       </set>
       <set comment="band 5">
        <r>  0.0000  0.0506  0.0513  0.0512  0.0000  0.0000  0.0000  0.0000  0.0000 </r>
        <r>  0.0000  0.0506  0.0513  0.0512  0.0000  0.0000  0.0000  0.0000  0.0000 </r>
       </set>
       <set comment="band 6">
        <r>  0.0000  0.0965  0.0076  0.0490  0.0000  0.0000  0.0000  0.0000  0.0000 </r>
        <r>  0.0000  0.0965  0.0076  0.0490  0.0000  0.0000  0.0000  0.0000  0.0000 </r>
       </set>
       <set comment="band 7">
        <r>  0.0000  0.0060  0.0941  0.0529  0.0000  0.0000  0.0000  0.0000  0.0000 </r>
        <r>  0.0000  0.0060  0.0941  0.0529  0.0000  0.0000  0.0000  0.0000  0.0000 </r>
       </set>
       <set comment="band 8">
        <r>  0.3610  0.0000  0.0000  0.0000  0.0000  0.0000  0.0000  0.0000  0.0000 </r>
        <r>  0.3610  0.0000  0.0000  0.0000  0.0000  0.0000  0.0000  0.0000  0.0000 </r>
       </set>
      </set>
     </set>
    </set>
   </array>
  </projected>
 </calculation>
 <structure name="finalpos" >
  <crystal>
   <varray name="basis" >
    <v>       2.73292696       2.73292696       0.00000000 </v>
    <v>       0.00000000       2.73292696       2.73292696 </v>
    <v>       2.73292696       0.00000000       2.73292696 </v>
   </varray>
   <i name="volume">     40.82386028 </i>
   <varray name="rec_basis" >
    <v>       0.18295403       0.18295403      -0.18295403 </v>
    <v>      -0.18295403       0.18295403       0.18295403 </v>
    <v>       0.18295403      -0.18295403       0.18295403 </v>
   </varray>
  </crystal>
  <varray name="positions" >
   <v>       0.00000000       0.00000000       0.00000000 </v>
   <v>       0.25000000       0.25000000       0.25000000 </v>
  </varray>
 </structure>
</modeling>
