   2   2   1   0
  0.2041193E+02  0.3864942E-09  0.3864942E-09  0.3864942E-09  0.5000000E-15
  1.000000000000000E-004
  CAR 
 fcc Si                                  
     17.47927152     -8.19406774  301      5.67488407      1.00000000
     -8.194  0.0000E+00  0.0000E+00
     -8.108  0.0000E+00  0.0000E+00
     -8.023  0.0000E+00  0.0000E+00
     -7.937  0.0000E+00  0.0000E+00
     -7.852  0.0000E+00  0.0000E+00
     -7.766  0.0000E+00  0.0000E+00
     -7.681  0.0000E+00  0.0000E+00
     -7.595  0.0000E+00  0.0000E+00
     -7.509  0.0000E+00  0.0000E+00
     -7.424  0.0000E+00  0.0000E+00
     -7.338  0.0000E+00  0.0000E+00
     -7.253  0.0000E+00  0.0000E+00
     -7.167  0.0000E+00  0.0000E+00
     -7.082  0.0000E+00  0.0000E+00
     -6.996  0.0000E+00  0.0000E+00
     -6.910  0.0000E+00  0.0000E+00
     -6.825  0.0000E+00  0.0000E+00
     -6.739  0.0000E+00  0.0000E+00
     -6.654  0.0000E+00  0.0000E+00
     -6.568  0.0000E+00  0.0000E+00
     -6.483  0.0000E+00  0.0000E+00
     -6.397  0.0000E+00  0.0000E+00
     -6.311  0.0000E+00  0.0000E+00
     -6.226  0.0000E+00  0.0000E+00
     -6.140  0.7059E-01  0.2172E-02
     -6.055  0.1257E+00  0.1098E-01
     -5.969  0.1644E+00  0.2363E-01
     -5.883  0.1985E+00  0.3908E-01
     -5.798  0.2224E+00  0.5709E-01
     -5.712  0.2502E+00  0.7728E-01
     -5.627  0.2707E+00  0.9959E-01
     -5.541  0.2936E+00  0.1237E+00
     -5.456  0.3150E+00  0.1498E+00
     -5.370  0.3341E+00  0.1776E+00
     -5.284  0.3553E+00  0.2071E+00
     -5.199  0.3743E+00  0.2384E+00
     -5.113  0.3930E+00  0.2712E+00
     -5.028  0.4131E+00  0.3057E+00
     -4.942  0.4325E+00  0.3419E+00
     -4.857  0.4514E+00  0.3797E+00
     -4.771  0.4716E+00  0.4192E+00
     -4.685  0.4932E+00  0.4604E+00
     -4.600  0.5140E+00  0.5035E+00
     -4.514  0.5365E+00  0.5485E+00
     -4.429  0.5612E+00  0.5954E+00
     -4.343  0.5883E+00  0.6446E+00
     -4.257  0.6176E+00  0.6962E+00
     -4.172  0.6528E+00  0.7505E+00
     -4.086  0.6965E+00  0.8082E+00
     -4.001  0.7591E+00  0.8702E+00
     -3.915  0.8990E+00  0.9402E+00
     -3.830  0.8959E+00  0.1018E+01
     -3.744  0.8629E+00  0.1094E+01
     -3.658  0.8451E+00  0.1167E+01
     -3.573  0.8067E+00  0.1237E+01
     -3.487  0.7796E+00  0.1305E+01
     -3.402  0.7413E+00  0.1370E+01
     -3.316  0.7201E+00  0.1433E+01
     -3.231  0.6863E+00  0.1493E+01
     -3.145  0.6541E+00  0.1550E+01
     -3.059  0.6270E+00  0.1605E+01
     -2.974  0.5927E+00  0.1658E+01
     -2.888  0.5608E+00  0.1707E+01
     -2.803  0.5313E+00  0.1754E+01
     -2.717  0.4942E+00  0.1798E+01
     -2.632  0.4605E+00  0.1838E+01
     -2.546  0.4301E+00  0.1877E+01
     -2.460  0.3967E+00  0.1911E+01
     -2.375  0.3792E+00  0.1944E+01
     -2.289  0.2768E+00  0.1973E+01
     -2.204  0.1799E+00  0.1992E+01
     -2.118  0.0000E+00  0.2000E+01
     -2.032  0.1244E-01  0.2000E+01
     -1.947  0.5765E-01  0.2003E+01
     -1.861  0.1370E+00  0.2011E+01
     -1.776  0.2797E+00  0.2028E+01
     -1.690  0.3064E+00  0.2054E+01
     -1.605  0.3565E+00  0.2083E+01
     -1.519  0.4147E+00  0.2116E+01
     -1.433  0.4659E+00  0.2154E+01
     -1.348  0.5228E+00  0.2196E+01
     -1.262  0.6075E+00  0.2244E+01
     -1.177  0.9696E+00  0.2307E+01
     -1.091  0.1627E+01  0.2417E+01
     -1.006  0.1364E+01  0.2571E+01
     -0.920  0.1050E+01  0.2672E+01
     -0.834  0.8987E+00  0.2755E+01
     -0.749  0.7978E+00  0.2827E+01
     -0.663  0.7307E+00  0.2892E+01
     -0.578  0.6742E+00  0.2952E+01
     -0.492  0.6227E+00  0.3008E+01
     -0.406  0.5795E+00  0.3059E+01
     -0.321  0.5482E+00  0.3107E+01
     -0.235  0.5179E+00  0.3153E+01
     -0.150  0.4888E+00  0.3196E+01
     -0.064  0.4578E+00  0.3236E+01
      0.021  0.4360E+00  0.3275E+01
      0.107  0.4168E+00  0.3311E+01
      0.193  0.3980E+00  0.3346E+01
      0.278  0.3769E+00  0.3379E+01
      0.364  0.3545E+00  0.3410E+01
      0.449  0.3399E+00  0.3440E+01
      0.535  0.3269E+00  0.3469E+01
      0.620  0.3131E+00  0.3496E+01
      0.706  0.2987E+00  0.3522E+01
      0.792  0.2822E+00  0.3547E+01
      0.877  0.2678E+00  0.3571E+01
      0.963  0.2583E+00  0.3593E+01
      1.048  0.2484E+00  0.3615E+01
      1.134  0.2386E+00  0.3636E+01
      1.219  0.2268E+00  0.3656E+01
      1.305  0.2151E+00  0.3674E+01
      1.391  0.5430E+00  0.3705E+01
      1.476  0.7849E+00  0.3761E+01
      1.562  0.1048E+01  0.3839E+01
      1.647  0.1304E+01  0.3946E+01
      1.733  0.1355E+01  0.4055E+01
      1.819  0.1120E+01  0.4154E+01
      1.904  0.1049E+01  0.4248E+01
      1.990  0.1008E+01  0.4336E+01
      2.075  0.1037E+01  0.4423E+01
      2.161  0.1035E+01  0.4513E+01
      2.246  0.1059E+01  0.4603E+01
      2.332  0.1076E+01  0.4695E+01
      2.418  0.1104E+01  0.4788E+01
      2.503  0.1132E+01  0.4885E+01
      2.589  0.1194E+01  0.4985E+01
      2.674  0.1241E+01  0.5090E+01
      2.760  0.1409E+01  0.5202E+01
      2.845  0.1639E+01  0.5328E+01
      2.931  0.1532E+01  0.5461E+01
      3.017  0.1533E+01  0.5593E+01
      3.102  0.1496E+01  0.5722E+01
      3.188  0.1474E+01  0.5849E+01
      3.273  0.1439E+01  0.5974E+01
      3.359  0.1426E+01  0.6096E+01
      3.445  0.1406E+01  0.6218E+01
      3.530  0.1372E+01  0.6336E+01
      3.616  0.1351E+01  0.6453E+01
      3.701  0.1323E+01  0.6567E+01
      3.787  0.1304E+01  0.6679E+01
      3.872  0.1289E+01  0.6790E+01
      3.958  0.1267E+01  0.6900E+01
      4.044  0.1241E+01  0.7007E+01
      4.129  0.1225E+01  0.7113E+01
      4.215  0.1207E+01  0.7217E+01
      4.300  0.1206E+01  0.7320E+01
      4.386  0.1179E+01  0.7422E+01
      4.471  0.9986E+00  0.7518E+01
      4.557  0.8035E+00  0.7594E+01
      4.643  0.7012E+00  0.7658E+01
      4.728  0.6203E+00  0.7715E+01
      4.814  0.5437E+00  0.7765E+01
      4.899  0.4808E+00  0.7808E+01
      4.985  0.4251E+00  0.7847E+01
      5.070  0.3754E+00  0.7881E+01
      5.156  0.3246E+00  0.7911E+01
      5.242  0.2742E+00  0.7937E+01
      5.327  0.2393E+00  0.7958E+01
      5.413  0.1867E+00  0.7977E+01
      5.498  0.1339E+00  0.7991E+01
      5.584  0.6512E-01  0.7999E+01
      5.670  0.0000E+00  0.8000E+01
      5.755  0.0000E+00  0.8000E+01
      5.841  0.0000E+00  0.8000E+01
      5.926  0.0000E+00  0.8000E+01
      6.012  0.0000E+00  0.8000E+01
      6.097  0.0000E+00  0.8000E+01
      6.183  0.0000E+00  0.8000E+01
      6.269  0.1859E-02  0.8000E+01
      6.354  0.9678E-01  0.8004E+01
      6.440  0.1846E+00  0.8016E+01
      6.525  0.2534E+00  0.8034E+01
      6.611  0.3335E+00  0.8060E+01
      6.696  0.3793E+00  0.8091E+01
      6.782  0.4266E+00  0.8125E+01
      6.868  0.4725E+00  0.8163E+01
      6.953  0.5202E+00  0.8206E+01
      7.039  0.5704E+00  0.8253E+01
      7.124  0.6290E+00  0.8304E+01
      7.210  0.7073E+00  0.8361E+01
      7.296  0.7980E+00  0.8425E+01
      7.381  0.8772E+00  0.8497E+01
      7.467  0.9615E+00  0.8576E+01
      7.552  0.1057E+01  0.8662E+01
      7.638  0.1164E+01  0.8757E+01
      7.723  0.1307E+01  0.8862E+01
      7.809  0.1619E+01  0.8986E+01
      7.895  0.1725E+01  0.9131E+01
      7.980  0.1686E+01  0.9277E+01
      8.066  0.1597E+01  0.9420E+01
      8.151  0.1569E+01  0.9554E+01
      8.237  0.1418E+01  0.9682E+01
      8.322  0.1344E+01  0.9798E+01
      8.408  0.1170E+01  0.9903E+01
      8.494  0.1105E+01  0.1000E+02
      8.579  0.1128E+01  0.1010E+02
      8.665  0.1104E+01  0.1019E+02
      8.750  0.9064E+00  0.1028E+02
      8.836  0.9703E+00  0.1036E+02
      8.921  0.2019E+01  0.1047E+02
      9.007  0.2336E+01  0.1067E+02
      9.093  0.2137E+01  0.1086E+02
      9.178  0.1810E+01  0.1103E+02
      9.264  0.1743E+01  0.1118E+02
      9.349  0.1884E+01  0.1134E+02
      9.435  0.1779E+01  0.1150E+02
      9.521  0.1575E+01  0.1164E+02
      9.606  0.1437E+01  0.1177E+02
      9.692  0.1234E+01  0.1188E+02
      9.777  0.1131E+01  0.1198E+02
      9.863  0.1128E+01  0.1208E+02
      9.948  0.1117E+01  0.1217E+02
     10.034  0.1168E+01  0.1227E+02
     10.120  0.1440E+01  0.1238E+02
     10.205  0.1397E+01  0.1250E+02
     10.291  0.1257E+01  0.1262E+02
     10.376  0.1269E+01  0.1272E+02
     10.462  0.1349E+01  0.1284E+02
     10.547  0.1212E+01  0.1295E+02
     10.633  0.1176E+01  0.1305E+02
     10.719  0.1156E+01  0.1315E+02
     10.804  0.1206E+01  0.1325E+02
     10.890  0.1271E+01  0.1336E+02
     10.975  0.1191E+01  0.1346E+02
     11.061  0.1209E+01  0.1356E+02
     11.147  0.1216E+01  0.1367E+02
     11.232  0.1157E+01  0.1377E+02
     11.318  0.1121E+01  0.1386E+02
     11.403  0.1097E+01  0.1396E+02
     11.489  0.1006E+01  0.1405E+02
     11.574  0.9967E+00  0.1414E+02
     11.660  0.1029E+01  0.1422E+02
     11.746  0.1054E+01  0.1432E+02
     11.831  0.9658E+00  0.1440E+02
     11.917  0.9005E+00  0.1448E+02
     12.002  0.8808E+00  0.1456E+02
     12.088  0.8988E+00  0.1463E+02
     12.173  0.1063E+01  0.1472E+02
     12.259  0.9630E+00  0.1480E+02
     12.345  0.9643E+00  0.1489E+02
     12.430  0.9521E+00  0.1497E+02
     12.516  0.8903E+00  0.1505E+02
     12.601  0.8103E+00  0.1512E+02
     12.687  0.7389E+00  0.1519E+02
     12.772  0.6907E+00  0.1525E+02
     12.858  0.6586E+00  0.1531E+02
     12.944  0.6483E+00  0.1536E+02
     13.029  0.6491E+00  0.1542E+02
     13.115  0.5840E+00  0.1547E+02
     13.200  0.5379E+00  0.1552E+02
     13.286  0.5187E+00  0.1556E+02
     13.372  0.5578E+00  0.1561E+02
     13.457  0.6041E+00  0.1566E+02
     13.543  0.5032E+00  0.1571E+02
     13.628  0.4297E+00  0.1575E+02
     13.714  0.3128E+00  0.1578E+02
     13.799  0.2520E+00  0.1581E+02
     13.885  0.2270E+00  0.1583E+02
     13.971  0.2197E+00  0.1584E+02
     14.056  0.2150E+00  0.1586E+02
     14.142  0.1861E+00  0.1588E+02
     14.227  0.1634E+00  0.1590E+02
     14.313  0.1460E+00  0.1591E+02
     14.398  0.1333E+00  0.1592E+02
     14.484  0.1234E+00  0.1593E+02
     14.570  0.1176E+00  0.1594E+02
     14.655  0.1148E+00  0.1595E+02
     14.741  0.1081E+00  0.1596E+02
     14.826  0.9559E-01  0.1597E+02
     14.912  0.7456E-01  0.1598E+02
     14.998  0.6002E-01  0.1598E+02
     15.083  0.4778E-01  0.1599E+02
     15.169  0.3738E-01  0.1599E+02
     15.254  0.2885E-01  0.1599E+02
     15.340  0.2348E-01  0.1600E+02
     15.425  0.2317E-01  0.1600E+02
     15.511  0.0000E+00  0.1600E+02
     15.597  0.0000E+00  0.1600E+02
     15.682  0.0000E+00  0.1600E+02
     15.768  0.0000E+00  0.1600E+02
     15.853  0.0000E+00  0.1600E+02
     15.939  0.0000E+00  0.1600E+02
     16.024  0.0000E+00  0.1600E+02
     16.110  0.0000E+00  0.1600E+02
     16.196  0.0000E+00  0.1600E+02
     16.281  0.0000E+00  0.1600E+02
     16.367  0.0000E+00  0.1600E+02
     16.452  0.0000E+00  0.1600E+02
     16.538  0.0000E+00  0.1600E+02
     16.623  0.0000E+00  0.1600E+02
     16.709  0.0000E+00  0.1600E+02
     16.795  0.0000E+00  0.1600E+02
     16.880  0.0000E+00  0.1600E+02
     16.966  0.0000E+00  0.1600E+02
     17.051  0.0000E+00  0.1600E+02
     17.137  0.0000E+00  0.1600E+02
     17.223  0.0000E+00  0.1600E+02
     17.308  0.0000E+00  0.1600E+02
     17.394  0.0000E+00  0.1600E+02
     17.479  0.0000E+00  0.1600E+02
     17.47927152     -8.19406774  301      5.67488407      1.00000000
     -8.194  0.0000E+00  0.0000E+00  0.0000E+00  0.0000E+00  0.0000E+00  0.0000E+00  0.0000E+00  0.0000E+00  0.0000E+00
     -8.108  0.0000E+00  0.0000E+00  0.0000E+00  0.0000E+00  0.0000E+00  0.0000E+00  0.0000E+00  0.0000E+00  0.0000E+00
     -8.023  0.0000E+00  0.0000E+00  0.0000E+00  0.0000E+00  0.0000E+00  0.0000E+00  0.0000E+00  0.0000E+00  0.0000E+00
     -7.937  0.0000E+00  0.0000E+00  0.0000E+00  0.0000E+00  0.0000E+00  0.0000E+00  0.0000E+00  0.0000E+00  0.0000E+00
     -7.852  0.0000E+00  0.0000E+00  0.0000E+00  0.0000E+00  0.0000E+00  0.0000E+00  0.0000E+00  0.0000E+00  0.0000E+00
     -7.766  0.0000E+00  0.0000E+00  0.0000E+00  0.0000E+00  0.0000E+00  0.0000E+00  0.0000E+00  0.0000E+00  0.0000E+00
     -7.681  0.0000E+00  0.0000E+00  0.0000E+00  0.0000E+00  0.0000E+00  0.0000E+00  0.0000E+00  0.0000E+00  0.0000E+00
     -7.595  0.0000E+00  0.0000E+00  0.0000E+00  0.0000E+00  0.0000E+00  0.0000E+00  0.0000E+00  0.0000E+00  0.0000E+00
     -7.509  0.0000E+00  0.0000E+00  0.0000E+00  0.0000E+00  0.0000E+00  0.0000E+00  0.0000E+00  0.0000E+00  0.0000E+00
     -7.424  0.0000E+00  0.0000E+00  0.0000E+00  0.0000E+00  0.0000E+00  0.0000E+00  0.0000E+00  0.0000E+00  0.0000E+00
     -7.338  0.0000E+00  0.0000E+00  0.0000E+00  0.0000E+00  0.0000E+00  0.0000E+00  0.0000E+00  0.0000E+00  0.0000E+00
     -7.253  0.0000E+00  0.0000E+00  0.0000E+00  0.0000E+00  0.0000E+00  0.0000E+00  0.0000E+00  0.0000E+00  0.0000E+00
     -7.167  0.0000E+00  0.0000E+00  0.0000E+00  0.0000E+00  0.0000E+00  0.0000E+00  0.0000E+00  0.0000E+00  0.0000E+00
     -7.082  0.0000E+00  0.0000E+00  0.0000E+00  0.0000E+00  0.0000E+00  0.0000E+00  0.0000E+00  0.0000E+00  0.0000E+00
     -6.996  0.0000E+00  0.0000E+00  0.0000E+00  0.0000E+00  0.0000E+00  0.0000E+00  0.0000E+00  0.0000E+00  0.0000E+00
     -6.910  0.0000E+00  0.0000E+00  0.0000E+00  0.0000E+00  0.0000E+00  0.0000E+00  0.0000E+00  0.0000E+00  0.0000E+00
     -6.825  0.0000E+00  0.0000E+00  0.0000E+00  0.0000E+00  0.0000E+00  0.0000E+00  0.0000E+00  0.0000E+00  0.0000E+00
     -6.739  0.0000E+00  0.0000E+00  0.0000E+00  0.0000E+00  0.0000E+00  0.0000E+00  0.0000E+00  0.0000E+00  0.0000E+00
     -6.654  0.0000E+00  0.0000E+00  0.0000E+00  0.0000E+00  0.0000E+00  0.0000E+00  0.0000E+00  0.0000E+00  0.0000E+00
     -6.568  0.0000E+00  0.0000E+00  0.0000E+00  0.0000E+00  0.0000E+00  0.0000E+00  0.0000E+00  0.0000E+00  0.0000E+00
     -6.483  0.0000E+00  0.0000E+00  0.0000E+00  0.0000E+00  0.0000E+00  0.0000E+00  0.0000E+00  0.0000E+00  0.0000E+00
     -6.397  0.0000E+00  0.0000E+00  0.0000E+00  0.0000E+00  0.0000E+00  0.0000E+00  0.0000E+00  0.0000E+00  0.0000E+00
     -6.311  0.0000E+00  0.0000E+00  0.0000E+00  0.0000E+00  0.0000E+00  0.0000E+00  0.0000E+00  0.0000E+00  0.0000E+00
     -6.226  0.0000E+00  0.0000E+00  0.0000E+00  0.0000E+00  0.0000E+00  0.0000E+00  0.0000E+00  0.0000E+00  0.0000E+00
     -6.140  0.1504E-01  0.2426E-04  0.1214E-04  0.1214E-04  0.0000E+00  0.0000E+00  0.0000E+00  0.0000E+00  0.0000E+00
     -6.055  0.2673E-01  0.1119E-03  0.4141E-04  0.4956E-04  0.0000E+00  0.0000E+00  0.0000E+00  0.0000E+00  0.0000E+00
     -5.969  0.3489E-01  0.2425E-03  0.7349E-04  0.9977E-04  0.0000E+00  0.0000E+00  0.0000E+00  0.0000E+00  0.0000E+00
     -5.883  0.4205E-01  0.4035E-03  0.1064E-03  0.1512E-03  0.0000E+00  0.0000E+00  0.0000E+00  0.0000E+00  0.0000E+00
     -5.798  0.4702E-01  0.5536E-03  0.1879E-03  0.2264E-03  0.0000E+00  0.0000E+00  0.0000E+00  0.0000E+00  0.0000E+00
     -5.712  0.5282E-01  0.7385E-03  0.2489E-03  0.2932E-03  0.0000E+00  0.0000E+00  0.0000E+00  0.0000E+00  0.0000E+00
     -5.627  0.5704E-01  0.9016E-03  0.3768E-03  0.3780E-03  0.0000E+00  0.0000E+00  0.0000E+00  0.0000E+00  0.0000E+00
     -5.541  0.6178E-01  0.1136E-02  0.4322E-03  0.4663E-03  0.0000E+00  0.0000E+00  0.0000E+00  0.0000E+00  0.0000E+00
     -5.456  0.6619E-01  0.1373E-02  0.5244E-03  0.5519E-03  0.0000E+00  0.0000E+00  0.0000E+00  0.0000E+00  0.0000E+00
     -5.370  0.7012E-01  0.1606E-02  0.6454E-03  0.6485E-03  0.0000E+00  0.0000E+00  0.0000E+00  0.0000E+00  0.0000E+00
     -5.284  0.7449E-01  0.1902E-02  0.7028E-03  0.7464E-03  0.0000E+00  0.0000E+00  0.0000E+00  0.0000E+00  0.0000E+00
     -5.199  0.7838E-01  0.2191E-02  0.8079E-03  0.8537E-03  0.0000E+00  0.0000E+00  0.0000E+00  0.0000E+00  0.0000E+00
     -5.113  0.8221E-01  0.2425E-02  0.9952E-03  0.9588E-03  0.0000E+00  0.0000E+00  0.0000E+00  0.0000E+00  0.0000E+00
     -5.028  0.8636E-01  0.2745E-02  0.1098E-02  0.1065E-02  0.0000E+00  0.0000E+00  0.0000E+00  0.0000E+00  0.0000E+00
     -4.942  0.9038E-01  0.3082E-02  0.1209E-02  0.1185E-02  0.0000E+00  0.0000E+00  0.0000E+00  0.0000E+00  0.0000E+00
     -4.857  0.9429E-01  0.3360E-02  0.1420E-02  0.1305E-02  0.0000E+00  0.0000E+00  0.0000E+00  0.0000E+00  0.0000E+00
     -4.771  0.9847E-01  0.3679E-02  0.1603E-02  0.1418E-02  0.0000E+00  0.0000E+00  0.0000E+00  0.0000E+00  0.0000E+00
     -4.685  0.1030E+00  0.4079E-02  0.1707E-02  0.1532E-02  0.0000E+00  0.0000E+00  0.0000E+00  0.0000E+00  0.0000E+00
     -4.600  0.1074E+00  0.4493E-02  0.1859E-02  0.1673E-02  0.0000E+00  0.0000E+00  0.0000E+00  0.0000E+00  0.0000E+00
     -4.514  0.1121E+00  0.4863E-02  0.2084E-02  0.1805E-02  0.0000E+00  0.0000E+00  0.0000E+00  0.0000E+00  0.0000E+00
     -4.429  0.1174E+00  0.5283E-02  0.2280E-02  0.1931E-02  0.0000E+00  0.0000E+00  0.0000E+00  0.0000E+00  0.0000E+00
     -4.343  0.1232E+00  0.5780E-02  0.2425E-02  0.2066E-02  0.0000E+00  0.0000E+00  0.0000E+00  0.0000E+00  0.0000E+00
     -4.257  0.1295E+00  0.6328E-02  0.2623E-02  0.2234E-02  0.0000E+00  0.0000E+00  0.0000E+00  0.0000E+00  0.0000E+00
     -4.172  0.1372E+00  0.6817E-02  0.2946E-02  0.2403E-02  0.0000E+00  0.0000E+00  0.0000E+00  0.0000E+00  0.0000E+00
     -4.086  0.1469E+00  0.7377E-02  0.3286E-02  0.2593E-02  0.0000E+00  0.0000E+00  0.0000E+00  0.0000E+00  0.0000E+00
     -4.001  0.1607E+00  0.8127E-02  0.3636E-02  0.2861E-02  0.0000E+00  0.0000E+00  0.0000E+00  0.0000E+00  0.0000E+00
     -3.915  0.1920E+00  0.9355E-02  0.4394E-02  0.3477E-02  0.0000E+00  0.0000E+00  0.0000E+00  0.0000E+00  0.0000E+00
     -3.830  0.1913E+00  0.9846E-02  0.4688E-02  0.3397E-02  0.0000E+00  0.0000E+00  0.0000E+00  0.0000E+00  0.0000E+00
     -3.744  0.1840E+00  0.1014E-01  0.4710E-02  0.3186E-02  0.0000E+00  0.0000E+00  0.0000E+00  0.0000E+00  0.0000E+00
     -3.658  0.1800E+00  0.1061E-01  0.4741E-02  0.3039E-02  0.0000E+00  0.0000E+00  0.0000E+00  0.0000E+00  0.0000E+00
     -3.573  0.1715E+00  0.1094E-01  0.4728E-02  0.2793E-02  0.0000E+00  0.0000E+00  0.0000E+00  0.0000E+00  0.0000E+00
     -3.487  0.1655E+00  0.1119E-01  0.4743E-02  0.2604E-02  0.0000E+00  0.0000E+00  0.0000E+00  0.0000E+00  0.0000E+00
     -3.402  0.1570E+00  0.1134E-01  0.4660E-02  0.2371E-02  0.0000E+00  0.0000E+00  0.0000E+00  0.0000E+00  0.0000E+00
     -3.316  0.1524E+00  0.1168E-01  0.4618E-02  0.2198E-02  0.0000E+00  0.0000E+00  0.0000E+00  0.0000E+00  0.0000E+00
     -3.231  0.1450E+00  0.1186E-01  0.4499E-02  0.1983E-02  0.0000E+00  0.0000E+00  0.0000E+00  0.0000E+00  0.0000E+00
     -3.145  0.1379E+00  0.1194E-01  0.4402E-02  0.1781E-02  0.0000E+00  0.0000E+00  0.0000E+00  0.0000E+00  0.0000E+00
     -3.059  0.1320E+00  0.1204E-01  0.4293E-02  0.1602E-02  0.0000E+00  0.0000E+00  0.0000E+00  0.0000E+00  0.0000E+00
     -2.974  0.1245E+00  0.1210E-01  0.4117E-02  0.1392E-02  0.0000E+00  0.0000E+00  0.0000E+00  0.0000E+00  0.0000E+00
     -2.888  0.1176E+00  0.1206E-01  0.3951E-02  0.1208E-02  0.0000E+00  0.0000E+00  0.0000E+00  0.0000E+00  0.0000E+00
     -2.803  0.1112E+00  0.1198E-01  0.3767E-02  0.1046E-02  0.0000E+00  0.0000E+00  0.0000E+00  0.0000E+00  0.0000E+00
     -2.717  0.1031E+00  0.1180E-01  0.3547E-02  0.8495E-03  0.0000E+00  0.0000E+00  0.0000E+00  0.0000E+00  0.0000E+00
     -2.632  0.9576E-01  0.1159E-01  0.3322E-02  0.6866E-03  0.0000E+00  0.0000E+00  0.0000E+00  0.0000E+00  0.0000E+00
     -2.546  0.8918E-01  0.1135E-01  0.3074E-02  0.5542E-03  0.0000E+00  0.0000E+00  0.0000E+00  0.0000E+00  0.0000E+00
     -2.460  0.8189E-01  0.1116E-01  0.2742E-02  0.4072E-03  0.0000E+00  0.0000E+00  0.0000E+00  0.0000E+00  0.0000E+00
     -2.375  0.7765E-01  0.1163E-01  0.2428E-02  0.2569E-03  0.0000E+00  0.0000E+00  0.0000E+00  0.0000E+00  0.0000E+00
     -2.289  0.5637E-01  0.8837E-02  0.1776E-02  0.1188E-03  0.0000E+00  0.0000E+00  0.0000E+00  0.0000E+00  0.0000E+00
     -2.204  0.3668E-01  0.5556E-02  0.1438E-02  0.4774E-04  0.0000E+00  0.0000E+00  0.0000E+00  0.0000E+00  0.0000E+00
     -2.118  0.0000E+00  0.0000E+00  0.0000E+00  0.0000E+00  0.0000E+00  0.0000E+00  0.0000E+00  0.0000E+00  0.0000E+00
     -2.032  0.2406E-02  0.5722E-03  0.9530E-05  0.3003E-05  0.0000E+00  0.0000E+00  0.0000E+00  0.0000E+00  0.0000E+00
     -1.947  0.1117E-01  0.2590E-02  0.1073E-03  0.2278E-04  0.0000E+00  0.0000E+00  0.0000E+00  0.0000E+00  0.0000E+00
     -1.861  0.2662E-01  0.5934E-02  0.4835E-03  0.7836E-04  0.0000E+00  0.0000E+00  0.0000E+00  0.0000E+00  0.0000E+00
     -1.776  0.5472E-01  0.1099E-01  0.2082E-02  0.2019E-03  0.0000E+00  0.0000E+00  0.0000E+00  0.0000E+00  0.0000E+00
     -1.690  0.5958E-01  0.1196E-01  0.2657E-02  0.3669E-03  0.0000E+00  0.0000E+00  0.0000E+00  0.0000E+00  0.0000E+00
     -1.605  0.6898E-01  0.1379E-01  0.3469E-02  0.5568E-03  0.0000E+00  0.0000E+00  0.0000E+00  0.0000E+00  0.0000E+00
     -1.519  0.7957E-01  0.1602E-01  0.4432E-02  0.9035E-03  0.0000E+00  0.0000E+00  0.0000E+00  0.0000E+00  0.0000E+00
     -1.433  0.8851E-01  0.1789E-01  0.5527E-02  0.1320E-02  0.0000E+00  0.0000E+00  0.0000E+00  0.0000E+00  0.0000E+00
     -1.348  0.9818E-01  0.1999E-01  0.6792E-02  0.1903E-02  0.0000E+00  0.0000E+00  0.0000E+00  0.0000E+00  0.0000E+00
     -1.262  0.1120E+00  0.2299E-01  0.8776E-02  0.2979E-02  0.0000E+00  0.0000E+00  0.0000E+00  0.0000E+00  0.0000E+00
     -1.177  0.1550E+00  0.3464E-01  0.1923E-01  0.1241E-01  0.0000E+00  0.0000E+00  0.0000E+00  0.0000E+00  0.0000E+00
     -1.091  0.2409E+00  0.5565E-01  0.3755E-01  0.2758E-01  0.0000E+00  0.0000E+00  0.0000E+00  0.0000E+00  0.0000E+00
     -1.006  0.2045E+00  0.4730E-01  0.3124E-01  0.2260E-01  0.0000E+00  0.0000E+00  0.0000E+00  0.0000E+00  0.0000E+00
     -0.920  0.1594E+00  0.3712E-01  0.2378E-01  0.1687E-01  0.0000E+00  0.0000E+00  0.0000E+00  0.0000E+00  0.0000E+00
     -0.834  0.1369E+00  0.3227E-01  0.2035E-01  0.1438E-01  0.0000E+00  0.0000E+00  0.0000E+00  0.0000E+00  0.0000E+00
     -0.749  0.1217E+00  0.2908E-01  0.1814E-01  0.1282E-01  0.0000E+00  0.0000E+00  0.0000E+00  0.0000E+00  0.0000E+00
     -0.663  0.1115E+00  0.2700E-01  0.1668E-01  0.1179E-01  0.0000E+00  0.0000E+00  0.0000E+00  0.0000E+00  0.0000E+00
     -0.578  0.1027E+00  0.2522E-01  0.1554E-01  0.1099E-01  0.0000E+00  0.0000E+00  0.0000E+00  0.0000E+00  0.0000E+00
     -0.492  0.9452E-01  0.2355E-01  0.1455E-01  0.1032E-01  0.0000E+00  0.0000E+00  0.0000E+00  0.0000E+00  0.0000E+00
     -0.406  0.8761E-01  0.2219E-01  0.1369E-01  0.9775E-02  0.0000E+00  0.0000E+00  0.0000E+00  0.0000E+00  0.0000E+00
     -0.321  0.8267E-01  0.2128E-01  0.1302E-01  0.9372E-02  0.0000E+00  0.0000E+00  0.0000E+00  0.0000E+00  0.0000E+00
     -0.235  0.7776E-01  0.2037E-01  0.1240E-01  0.9005E-02  0.0000E+00  0.0000E+00  0.0000E+00  0.0000E+00  0.0000E+00
     -0.150  0.7301E-01  0.1948E-01  0.1182E-01  0.8662E-02  0.0000E+00  0.0000E+00  0.0000E+00  0.0000E+00  0.0000E+00
     -0.064  0.6792E-01  0.1846E-01  0.1124E-01  0.8291E-02  0.0000E+00  0.0000E+00  0.0000E+00  0.0000E+00  0.0000E+00
      0.021  0.6439E-01  0.1776E-01  0.1085E-01  0.8024E-02  0.0000E+00  0.0000E+00  0.0000E+00  0.0000E+00  0.0000E+00
      0.107  0.6125E-01  0.1718E-01  0.1046E-01  0.7807E-02  0.0000E+00  0.0000E+00  0.0000E+00  0.0000E+00  0.0000E+00
      0.193  0.5814E-01  0.1662E-01  0.1006E-01  0.7599E-02  0.0000E+00  0.0000E+00  0.0000E+00  0.0000E+00  0.0000E+00
      0.278  0.5467E-01  0.1597E-01  0.9601E-02  0.7357E-02  0.0000E+00  0.0000E+00  0.0000E+00  0.0000E+00  0.0000E+00
      0.364  0.5098E-01  0.1521E-01  0.9144E-02  0.7073E-02  0.0000E+00  0.0000E+00  0.0000E+00  0.0000E+00  0.0000E+00
      0.449  0.4861E-01  0.1474E-01  0.8879E-02  0.6892E-02  0.0000E+00  0.0000E+00  0.0000E+00  0.0000E+00  0.0000E+00
      0.535  0.4648E-01  0.1431E-01  0.8635E-02  0.6739E-02  0.0000E+00  0.0000E+00  0.0000E+00  0.0000E+00  0.0000E+00
      0.620  0.4420E-01  0.1386E-01  0.8358E-02  0.6579E-02  0.0000E+00  0.0000E+00  0.0000E+00  0.0000E+00  0.0000E+00
      0.706  0.4183E-01  0.1338E-01  0.8044E-02  0.6409E-02  0.0000E+00  0.0000E+00  0.0000E+00  0.0000E+00  0.0000E+00
      0.792  0.3916E-01  0.1282E-01  0.7675E-02  0.6194E-02  0.0000E+00  0.0000E+00  0.0000E+00  0.0000E+00  0.0000E+00
      0.877  0.3685E-01  0.1231E-01  0.7373E-02  0.5986E-02  0.0000E+00  0.0000E+00  0.0000E+00  0.0000E+00  0.0000E+00
      0.963  0.3531E-01  0.1198E-01  0.7190E-02  0.5869E-02  0.0000E+00  0.0000E+00  0.0000E+00  0.0000E+00  0.0000E+00
      1.048  0.3371E-01  0.1162E-01  0.7002E-02  0.5746E-02  0.0000E+00  0.0000E+00  0.0000E+00  0.0000E+00  0.0000E+00
      1.134  0.3211E-01  0.1125E-01  0.6814E-02  0.5620E-02  0.0000E+00  0.0000E+00  0.0000E+00  0.0000E+00  0.0000E+00
      1.219  0.3021E-01  0.1084E-01  0.6523E-02  0.5453E-02  0.0000E+00  0.0000E+00  0.0000E+00  0.0000E+00  0.0000E+00
      1.305  0.2837E-01  0.1046E-01  0.6199E-02  0.5274E-02  0.0000E+00  0.0000E+00  0.0000E+00  0.0000E+00  0.0000E+00
      1.391  0.2816E-01  0.2942E-01  0.2136E-01  0.2225E-01  0.0000E+00  0.0000E+00  0.0000E+00  0.0000E+00  0.0000E+00
      1.476  0.2902E-01  0.4317E-01  0.3212E-01  0.3562E-01  0.0000E+00  0.0000E+00  0.0000E+00  0.0000E+00  0.0000E+00
      1.562  0.3074E-01  0.5692E-01  0.4481E-01  0.5064E-01  0.0000E+00  0.0000E+00  0.0000E+00  0.0000E+00  0.0000E+00
      1.647  0.3287E-01  0.6709E-01  0.6069E-01  0.6551E-01  0.0000E+00  0.0000E+00  0.0000E+00  0.0000E+00  0.0000E+00
      1.733  0.3268E-01  0.6650E-01  0.6656E-01  0.6998E-01  0.0000E+00  0.0000E+00  0.0000E+00  0.0000E+00  0.0000E+00
      1.819  0.3236E-01  0.5587E-01  0.5615E-01  0.5476E-01  0.0000E+00  0.0000E+00  0.0000E+00  0.0000E+00  0.0000E+00
      1.904  0.3186E-01  0.5217E-01  0.5417E-01  0.5065E-01  0.0000E+00  0.0000E+00  0.0000E+00  0.0000E+00  0.0000E+00
      1.990  0.3161E-01  0.5022E-01  0.5304E-01  0.4822E-01  0.0000E+00  0.0000E+00  0.0000E+00  0.0000E+00  0.0000E+00
      2.075  0.3140E-01  0.5084E-01  0.5577E-01  0.5092E-01  0.0000E+00  0.0000E+00  0.0000E+00  0.0000E+00  0.0000E+00
      2.161  0.3102E-01  0.4983E-01  0.5730E-01  0.5187E-01  0.0000E+00  0.0000E+00  0.0000E+00  0.0000E+00  0.0000E+00
      2.246  0.3057E-01  0.5052E-01  0.5976E-01  0.5428E-01  0.0000E+00  0.0000E+00  0.0000E+00  0.0000E+00  0.0000E+00
      2.332  0.2972E-01  0.5041E-01  0.6215E-01  0.5659E-01  0.0000E+00  0.0000E+00  0.0000E+00  0.0000E+00  0.0000E+00
      2.418  0.2870E-01  0.5040E-01  0.6542E-01  0.6033E-01  0.0000E+00  0.0000E+00  0.0000E+00  0.0000E+00  0.0000E+00
      2.503  0.2773E-01  0.4997E-01  0.6926E-01  0.6428E-01  0.0000E+00  0.0000E+00  0.0000E+00  0.0000E+00  0.0000E+00
      2.589  0.2730E-01  0.5087E-01  0.7493E-01  0.7054E-01  0.0000E+00  0.0000E+00  0.0000E+00  0.0000E+00  0.0000E+00
      2.674  0.2673E-01  0.5097E-01  0.7997E-01  0.7606E-01  0.0000E+00  0.0000E+00  0.0000E+00  0.0000E+00  0.0000E+00
      2.760  0.2595E-01  0.5097E-01  0.9683E-01  0.9371E-01  0.0000E+00  0.0000E+00  0.0000E+00  0.0000E+00  0.0000E+00
      2.845  0.2482E-01  0.5034E-01  0.1204E+00  0.1187E+00  0.0000E+00  0.0000E+00  0.0000E+00  0.0000E+00  0.0000E+00
      2.931  0.2377E-01  0.4985E-01  0.1109E+00  0.1102E+00  0.0000E+00  0.0000E+00  0.0000E+00  0.0000E+00  0.0000E+00
      3.017  0.2259E-01  0.4982E-01  0.1117E+00  0.1121E+00  0.0000E+00  0.0000E+00  0.0000E+00  0.0000E+00  0.0000E+00
      3.102  0.2143E-01  0.4948E-01  0.1085E+00  0.1110E+00  0.0000E+00  0.0000E+00  0.0000E+00  0.0000E+00  0.0000E+00
      3.188  0.2065E-01  0.4908E-01  0.1072E+00  0.1108E+00  0.0000E+00  0.0000E+00  0.0000E+00  0.0000E+00  0.0000E+00
      3.273  0.1984E-01  0.4888E-01  0.1040E+00  0.1092E+00  0.0000E+00  0.0000E+00  0.0000E+00  0.0000E+00  0.0000E+00
      3.359  0.1880E-01  0.4880E-01  0.1032E+00  0.1104E+00  0.0000E+00  0.0000E+00  0.0000E+00  0.0000E+00  0.0000E+00
      3.445  0.1782E-01  0.4857E-01  0.1020E+00  0.1103E+00  0.0000E+00  0.0000E+00  0.0000E+00  0.0000E+00  0.0000E+00
      3.530  0.1681E-01  0.4799E-01  0.9939E-01  0.1090E+00  0.0000E+00  0.0000E+00  0.0000E+00  0.0000E+00  0.0000E+00
      3.616  0.1581E-01  0.4690E-01  0.9847E-01  0.1092E+00  0.0000E+00  0.0000E+00  0.0000E+00  0.0000E+00  0.0000E+00
      3.701  0.1465E-01  0.4645E-01  0.9588E-01  0.1094E+00  0.0000E+00  0.0000E+00  0.0000E+00  0.0000E+00  0.0000E+00
      3.787  0.1387E-01  0.4681E-01  0.9413E-01  0.1093E+00  0.0000E+00  0.0000E+00  0.0000E+00  0.0000E+00  0.0000E+00
      3.872  0.1288E-01  0.4691E-01  0.9294E-01  0.1096E+00  0.0000E+00  0.0000E+00  0.0000E+00  0.0000E+00  0.0000E+00
      3.958  0.1188E-01  0.4651E-01  0.9054E-01  0.1107E+00  0.0000E+00  0.0000E+00  0.0000E+00  0.0000E+00  0.0000E+00
      4.044  0.1087E-01  0.4494E-01  0.8885E-01  0.1112E+00  0.0000E+00  0.0000E+00  0.0000E+00  0.0000E+00  0.0000E+00
      4.129  0.9799E-02  0.4286E-01  0.8906E-01  0.1122E+00  0.0000E+00  0.0000E+00  0.0000E+00  0.0000E+00  0.0000E+00
      4.215  0.8791E-02  0.4324E-01  0.8658E-01  0.1131E+00  0.0000E+00  0.0000E+00  0.0000E+00  0.0000E+00  0.0000E+00
      4.300  0.7689E-02  0.4416E-01  0.8767E-01  0.1136E+00  0.0000E+00  0.0000E+00  0.0000E+00  0.0000E+00  0.0000E+00
      4.386  0.6727E-02  0.4109E-01  0.8821E-01  0.1133E+00  0.0000E+00  0.0000E+00  0.0000E+00  0.0000E+00  0.0000E+00
      4.471  0.5911E-02  0.3817E-01  0.7269E-01  0.9498E-01  0.0000E+00  0.0000E+00  0.0000E+00  0.0000E+00  0.0000E+00
      4.557  0.5439E-02  0.3335E-01  0.5705E-01  0.7469E-01  0.0000E+00  0.0000E+00  0.0000E+00  0.0000E+00  0.0000E+00
      4.643  0.4986E-02  0.3016E-01  0.4973E-01  0.6438E-01  0.0000E+00  0.0000E+00  0.0000E+00  0.0000E+00  0.0000E+00
      4.728  0.4466E-02  0.2787E-01  0.4340E-01  0.5663E-01  0.0000E+00  0.0000E+00  0.0000E+00  0.0000E+00  0.0000E+00
      4.814  0.3719E-02  0.2449E-01  0.3840E-01  0.4974E-01  0.0000E+00  0.0000E+00  0.0000E+00  0.0000E+00  0.0000E+00
      4.899  0.3127E-02  0.2268E-01  0.3328E-01  0.4406E-01  0.0000E+00  0.0000E+00  0.0000E+00  0.0000E+00  0.0000E+00
      4.985  0.2570E-02  0.1978E-01  0.2984E-01  0.3923E-01  0.0000E+00  0.0000E+00  0.0000E+00  0.0000E+00  0.0000E+00
      5.070  0.2145E-02  0.1872E-01  0.2566E-01  0.3441E-01  0.0000E+00  0.0000E+00  0.0000E+00  0.0000E+00  0.0000E+00
      5.156  0.1719E-02  0.1668E-01  0.2201E-01  0.2971E-01  0.0000E+00  0.0000E+00  0.0000E+00  0.0000E+00  0.0000E+00