    2    2    1    1
  0.2041193E+02  0.3864942E-09  0.3864942E-09  0.3864942E-09  0.5000000E-15
  1.000000000000000E-004
  CAR 
 fcc Si                                  
      8    286      8
 
  0.0000000E+00  0.0000000E+00  0.0000000E+00  0.1079797E-03
    1       -6.194068   1.000000
    2        5.643200   1.000000
    3        5.643217   1.000000
    4        5.643217   1.000000
    5        8.203201   0.000000
    6        8.203218   0.000000
    7        8.203218   0.000000
    8        8.783224   0.000000
 
  0.4761905E-01 -0.3067269E-18 -0.3067269E-18  0.8638376E-03
    1       -6.164810   1.000000
    2        5.313687   1.000000
    3        5.593812   1.000000
    4        5.593827   1.000000
    5        8.248218   0.000000
    6        8.275570   0.000000
    7        8.275585   0.000000
    8        9.017034   0.000000
 
  0.9523810E-01 -0.6134537E-18 -0.6134537E-18  0.8638376E-03
    1       -6.077294   1.000000
    2        4.579977   1.000000
    3        5.463135   1.000000
    4        5.463149   1.000000
    5        8.183123   0.000000
    6        8.466437   0.000000
    7        8.466452   0.000000
    8        9.676057   0.000000
 
  0.1428571E+00 -0.5942437E-17 -0.5942437E-17  0.8638376E-03
    1       -5.932458   1.000000
    2        3.716316   1.000000
    3        5.290089   1.000000
    4        5.290104   1.000000
    5        8.025155   0.000000
    6        8.715513   0.000000
    7        8.715528   0.000000
    8       10.500959   0.000000
 
  0.1904762E+00  0.1549411E-16  0.1616325E-17  0.8638376E-03
    1       -5.731982   1.000000
    2        2.828444   1.000000
    3        5.106778   1.000000
    4        5.106793   1.000000
    5        7.837888   0.000000
    6        8.953546   0.000000
    7        8.953566   0.000000
    8       11.359081   0.000000
 
  0.2380952E+00  0.3830028E-18  0.3830028E-18  0.8638376E-03
    1       -5.478992   1.000000
    2        1.957951   1.000000
    3        4.933299   1.000000
    4        4.933315   1.000000
    5        7.651406   0.000000
    6        9.116683   0.000000
    7        9.116708   0.000000
    8       12.200193   0.000000
 
  0.2857143E+00 -0.1102172E-16 -0.1102172E-16  0.8638376E-03
    1       -5.179105   1.000000
    2        1.127106   1.000000
    3        4.780035   1.000000
    4        4.780051   1.000000
    5        7.483212   0.000000
    6        9.176939   0.000000
    7        9.176968   0.000000
    8       12.963137   0.000000
 
  0.3333333E+00  0.1622741E-17  0.1622741E-17  0.8638376E-03
    1       -4.842058   1.000000
    2        0.358848   1.000000
    3        4.653904   1.000000
    4        4.653919   1.000000
    5        7.343015   0.000000
    6        9.156473   0.000000
    7        9.156505   0.000000
    8       13.429967   0.000000
 
  0.3809524E+00  0.3098823E-16  0.3232651E-17  0.8638376E-03
    1       -4.488128   1.000000
    2       -0.322628   1.000000
    3        4.557808   1.000000
    4        4.557824   1.000000
    5        7.232383   0.000000
    6        9.099013   0.000000
    7        9.099045   0.000000
    8       13.474610   0.000000
 
  0.4285714E+00 -0.1187846E-16 -0.1187846E-16  0.8638376E-03
    1       -4.159800   1.000000
    2       -0.871010   1.000000
    3        4.493366   1.000000
    4        4.493382   1.000000
    5        7.158187   0.000000
    6        9.043383   0.000000
    7        9.043416   0.000000
    8       13.402296   0.000000
 
  0.4761905E+00  0.7660056E-18  0.7660056E-18  0.8638376E-03
    1       -3.942926   1.000000
    2       -1.199164   1.000000
    3        4.460291   1.000000
    4        4.460308   1.000000
    5        7.120490   0.000000
    6        9.009102   0.000000
    7        9.009135   0.000000
    8       13.350609   0.000000
 
  0.4761905E-01  0.4761905E-01 -0.5449304E-18  0.6478782E-03
    1       -6.155037   1.000000
    2        5.379149   1.000000
    3        5.486345   1.000000
    4        5.486356   1.000000
    5        8.108753   0.000000
    6        8.408379   0.000000
    7        8.408390   0.000000
    8        9.038860   0.000000
 
  0.9523810E-01  0.4761905E-01 -0.3067269E-18  0.2591513E-02
    1       -6.086885   1.000000
    2        4.797134   1.000000
    3        5.315902   1.000000
    4        5.435066   1.000000
    5        8.099677   0.000000
    6        8.487271   0.000000
    7        8.644390   0.000000
    8        9.519759   0.000000
 
  0.1428571E+00  0.4761905E-01 -0.2166264E-17  0.2591513E-02
    1       -5.961055   1.000000
    2        3.983464   1.000000
    3        5.121483   1.000000
    4        5.320162   1.000000
    5        8.153990   0.000000
    6        8.479684   0.000000
    7        8.926430   0.000000
    8       10.259898   0.000000
 
  0.1904762E+00  0.4761905E-01 -0.1546395E-17  0.2591513E-02
    1       -5.778888   1.000000
    2        3.112449   1.000000
    3        4.930401   1.000000
    4        5.151244   1.000000
    5        8.066812   0.000000
    6        8.629398   0.000000
    7        9.191789   0.000000
    8       10.993430   0.000000
 
  0.2380952E+00  0.4761905E-01  0.1616325E-17  0.2591513E-02
    1       -5.543092   1.000000
    2        2.242329   1.000000
    3        4.758124   1.000000
    4        4.963425   1.000000
    5        7.904969   0.000000
    6        8.824652   0.000000
    7        9.376451   0.000000
    8       11.547534   0.000000
 
  0.2857143E+00  0.4761905E-01  0.3830028E-18  0.2591513E-02
    1       -5.258104   1.000000
    2        1.402634   1.000000
    3        4.614191   1.000000
    4        4.779370   1.000000
    5        7.740705   0.000000
    6        8.949892   0.000000
    7        9.447462   0.000000
    8       11.959825   0.000000
 
  0.3333333E+00  0.4761905E-01 -0.1102172E-16  0.2591513E-02
    1       -4.931937   1.000000
    2        0.614801   1.000000
    3        4.503504   1.000000
    4        4.612184   1.000000
    5        7.597069   0.000000
    6        8.987230   0.000000
    7        9.418660   0.000000
    8       12.435323   0.000000
 
  0.3809524E+00  0.4761905E-01  0.9551676E-17  0.2591513E-02
    1       -4.580439   1.000000
    2       -0.096691   1.000000
    3        4.428366   1.000000
    4        4.468597   1.000000
    5        7.479300   0.000000
    6        8.972538   0.000000
    7        9.334045   0.000000
    8       12.975934   0.000000
 
  0.4285714E+00  0.4761905E-01  0.3232651E-17  0.2591513E-02
    1       -4.236483   1.000000
    2       -0.695201   1.000000
    3        4.352960   1.000000
    4        4.388884   1.000000
    5        7.392993   0.000000
    6        8.949303   0.000000
    7        9.236205   0.000000
    8       13.357928   0.000000
 
  0.4761905E+00  0.4761905E-01  0.5705711E-17  0.2591513E-02
    1       -3.969623   1.000000
    2       -1.108786   1.000000
    3        4.267911   1.000000
    4        4.385359   1.000000
    5        7.343005   0.000000
    6        8.945684   0.000000
    7        9.152120   0.000000
    8       13.442445   0.000000
 
 -0.4761905E+00  0.4761905E-01 -0.3239066E-17  0.2591513E-02
    1       -3.889253   1.000000
    2       -1.226010   1.000000
    3        4.215926   1.000000
    4        4.416611   1.000000
    5        7.329324   0.000000
    6        8.974452   0.000000
    7        9.098141   0.000000
    8       13.454545   0.000000
 
 -0.4285714E+00  0.4761905E-01  0.9405399E-17  0.2591513E-02
    1       -4.043751   1.000000
    2       -0.997614   1.000000
    3        4.198767   1.000000
    4        4.481499   1.000000
    5        7.352870   0.000000
    6        9.039163   0.000000
    7        9.077223   0.000000
    8       13.471729   0.000000
 
 -0.3809524E+00  0.4761905E-01  0.1187846E-16  0.2591513E-02
    1       -4.347274   1.000000
    2       -0.511190   1.000000
    3        4.217430   1.000000
    4        4.577075   1.000000
    5        7.412501   0.000000
    6        9.083884   0.000000
    7        9.131225   0.000000
    8       13.446964   0.000000
 
 -0.3333333E+00  0.4761905E-01  0.1348837E-16  0.2591513E-02
    1       -4.699160   1.000000
    2        0.130857   1.000000
    3        4.273485   1.000000
    4        4.701369   1.000000
    5        7.508431   0.000000
    6        9.099705   0.000000
    7        9.232690   0.000000
    8       13.201464   0.000000
 
 -0.2857143E+00  0.4761905E-01  0.7169345E-17  0.2591513E-02
    1       -5.044677   1.000000
    2        0.870583   1.000000
    3        4.366216   1.000000
    4        4.850895   1.000000
    5        7.635880   0.000000
    6        9.093808   0.000000
    7        9.307832   0.000000
    8       12.704654   0.000000
 
 -0.2380952E+00  0.4761905E-01 -0.7941766E-17  0.2591513E-02
    1       -5.358320   1.000000
    2        1.678146   1.000000
    3        4.495597   1.000000
    4        5.020571   1.000000
    5        7.789153   0.000000
    6        9.023809   0.000000
    7        9.306815   0.000000
    8       12.138105   0.000000
 
 -0.1904762E+00  0.4761905E-01 -0.3830028E-18  0.2591513E-02
    1       -5.627594   1.000000
    2        2.528806   1.000000
    3        4.659185   1.000000
    4        5.200661   1.000000
    5        7.964407   0.000000
    6        8.865048   0.000000
    7        9.183500   0.000000
    8       11.523122   0.000000
 
 -0.1428571E+00  0.4761905E-01 -0.1616325E-17  0.2591513E-02
    1       -5.845853   1.000000
    2        3.399164   1.000000
    3        4.853354   1.000000
    4        5.377038   1.000000
    5        8.144587   0.000000
    6        8.642827   0.000000
    7        8.942641   0.000000
    8       10.816775   0.000000
 
 -0.9523810E-01  0.4761905E-01 -0.6415201E-20  0.2591513E-02
    1       -6.009402   1.000000
    2        4.246090   1.000000
    3        5.073064   1.000000
    4        5.524004   1.000000
    5        8.301360   0.000000
    6        8.424220   0.000000
    7        8.642999   0.000000
    8       10.062316   0.000000
 
 -0.4761905E-01  0.4761905E-01  0.6134537E-18  0.1295756E-02
    1       -6.116124   1.000000
    2        4.956150   1.000000
    3        5.328415   1.000000
    4        5.606720   1.000000
    5        8.283809   0.000000
    6        8.349276   0.000000
    7        8.397166   0.000000
    8        9.385537   0.000000
 
  0.9523810E-01  0.9523810E-01 -0.1089861E-17  0.6478782E-03
    1       -6.038158   1.000000
    2        4.757651   1.000000
    3        5.118830   1.000000
    4        5.118840   1.000000
    5        7.860289   0.000000
    6        8.917059   0.000000
    7        8.917071   0.000000
    8        9.583756   0.000000
 
  0.1428571E+00  0.9523810E-01 -0.1859537E-17  0.2591513E-02
    1       -5.931407   1.000000
    2        4.143059   1.000000
    3        4.909021   1.000000
    4        5.011611   1.000000
    5        7.809156   0.000000
    6        9.005084   0.000000
    7        9.232357   0.000000
    8       10.067457   0.000000
 
  0.1904762E+00  0.9523810E-01 -0.4709115E-17  0.2591513E-02
    1       -5.767964   1.000000
    2        3.342638   1.000000
    3        4.709080   1.000000
    4        4.877492   1.000000
    5        7.903550   0.000000
    6        8.934161   0.000000
    7        9.532965   0.000000
    8       10.552993   0.000000
 
  0.2380952E+00  0.9523810E-01 -0.5942437E-17  0.2591513E-02
    1       -5.549902   1.000000
    2        2.504363   1.000000
    3        4.533898   1.000000
    4        4.688015   1.000000
    5        8.007335   0.000000
    6        8.900878   0.000000
    7        9.756378   0.000000
    8       10.781045   0.000000
 
  0.2857143E+00  0.9523810E-01  0.1616325E-17  0.2591513E-02
    1       -5.280890   1.000000
    2        1.675504   1.000000
    3        4.391907   1.000000
    4        4.479088   1.000000
    5        8.013557   0.000000
    6        8.940188   0.000000
    7        9.859702   0.000000
    8       10.972011   0.000000
 
  0.3333333E+00  0.9523810E-01 -0.4702700E-17  0.2591513E-02
    1       -4.967376   1.000000
    2        0.884141   1.000000
    3        4.273897   1.000000
    4        4.287461   1.000000
    5        7.943170   0.000000
    6        8.973763   0.000000
    7        9.842472   0.000000
    8       11.328977   0.000000
 
  0.3809524E+00  0.9523810E-01 -0.3092789E-17  0.2591513E-02
    1       -4.621949   1.000000
    2        0.154352   1.000000
    3        4.086414   1.000000
    4        4.222399   1.000000
    5        7.853624   0.000000
    6        8.965355   0.000000
    7        9.749526   0.000000
    8       11.868613   0.000000
 
  0.4285714E+00  0.9523810E-01 -0.9411814E-17  0.2591513E-02
    1       -4.269884   1.000000
    2       -0.481097   1.000000
    3        3.924662   1.000000
    4        4.197848   1.000000
    5        7.777455   0.000000
    6        8.942609   0.000000
    7        9.624967   0.000000
    8       12.523590   0.000000
 
  0.4761905E+00  0.9523810E-01  0.3232651E-17  0.2591513E-02
    1       -3.965748   1.000000
    2       -0.963586   1.000000
    3        3.794225   1.000000
    4        4.213507   1.000000
    5        7.730293   0.000000
    6        8.937342   0.000000
    7        9.503150   0.000000
    8       13.183693   0.000000
 
 -0.4761905E+00  0.9523810E-01 -0.1588353E-16  0.2591513E-02
    1       -3.810781   1.000000
    2       -1.189722   1.000000
    3        3.698300   1.000000
    4        4.267573   1.000000
    5        7.717135   0.000000
    6        8.964643   0.000000
    7        9.403245   0.000000
    8       13.616651   0.000000
 
 -0.4285714E+00  0.9523810E-01 -0.2082324E-16  0.2591513E-02
    1       -3.892739   1.000000
    2       -1.071363   1.000000
    3        3.640642   1.000000
    4        4.357644   1.000000
    5        7.739121   0.000000
    6        9.030980   0.000000
    7        9.333655   0.000000
    8       13.704104   0.000000
 
 -0.3809524E+00  0.9523810E-01 -0.7660056E-18  0.2591513E-02
    1       -4.161105   1.000000
    2       -0.658914   1.000000
    3        3.623097   1.000000
    4        4.480368   1.000000
    5        7.795487   0.000000
    6        9.131271   0.000000
    7        9.290808   0.000000
    8       13.504531   0.000000
 
 -0.3333333E+00  0.9523810E-01  0.8439046E-18  0.2591513E-02
    1       -4.505500   1.000000
    2       -0.065048   1.000000
    3        3.648416   1.000000
    4        4.631953   1.000000
    5        7.885450   0.000000
    6        9.253920   0.000000
    7        9.261808   0.000000
    8       13.022203   0.000000
 
 -0.2857143E+00  0.9523810E-01  0.1348837E-16  0.2591513E-02
    1       -4.856850   1.000000
    2        0.636779   1.000000
    3        3.718539   1.000000
    4        4.806407   1.000000
    5        8.004602   0.000000
    6        9.218045   0.000000
    7        9.362820   0.000000
    8       12.433797   0.000000
 
 -0.2380952E+00  0.9523810E-01  0.7169345E-17  0.2591513E-02
    1       -5.182557   1.000000
    2        1.407301   1.000000
    3        3.836704   1.000000
    4        4.995277   1.000000
    5        8.145843   0.000000
    6        9.119886   0.000000
    7        9.398952   0.000000
    8       11.892386   0.000000
 
 -0.1904762E+00  0.9523810E-01  0.1102172E-16  0.2591513E-02
    1       -5.467002   1.000000
    2        2.215054   1.000000
    3        4.007297   1.000000
    4        5.186266   1.000000
    5        8.304155   0.000000
    6        8.945366   0.000000
    7        9.290122   0.000000
    8       11.464836   0.000000
 
 -0.1428571E+00  0.9523810E-01 -0.3830028E-18  0.2591513E-02
    1       -5.702267   1.000000
    2        3.019050   1.000000
    3        4.244286   1.000000
    4        5.358830   1.000000
    5        8.460188   0.000000
    6        8.722175   0.000000
    7        9.017847   0.000000
    8       11.078847   0.000000
 
 -0.9523810E-01  0.9523810E-01  0.1226907E-17  0.1295756E-02
    1       -5.883943   1.000000
    2        3.735165   1.000000
    3        4.590271   1.000000
    4        5.482642   1.000000
    5        8.523636   0.000000
    6        8.546054   0.000000
    7        8.697309   0.000000
    8       10.599042   0.000000
 
  0.1428571E+00  0.1428571E+00 -0.1634791E-17  0.6478782E-03
    1       -5.843793   1.000000
    2        3.991377   1.000000
    3        4.687392   1.000000
    4        4.687402   1.000000
    5        7.532003   0.000000
    6        9.585999   0.000000
    7        9.586011   0.000000
    8        9.940488   0.000000
 
  0.1904762E+00  0.1428571E+00 -0.6515567E-18  0.2591513E-02
    1       -5.699164   1.000000
    2        3.415562   1.000000
    3        4.478802   1.000000
    4        4.521177   1.000000
    5        7.470249   0.000000
    6        9.599004   0.000000
    7        9.932538   0.000000
    8       10.160348   0.000000
 
  0.2380952E+00  0.1428571E+00 -0.6134537E-18  0.2591513E-02
    1       -5.499221   1.000000
    2        2.677760   1.000000
    3        4.297486   1.000000
    4        4.334128   1.000000
    5        7.577461   0.000000
    6        9.488124   0.000000
    7       10.211795   0.000000
    8       10.240597   0.000000
 
  0.2857143E+00  0.1428571E+00 -0.4389628E-17  0.2591513E-02
    1       -5.246983   1.000000
    2        1.900378   1.000000
    3        4.103150   1.000000
    4        4.151686   1.000000
    5        7.721406   0.000000
    6        9.475922   0.000000
    7       10.220339   0.000000
    8       10.368481   0.000000
 
  0.3333333E+00  0.1428571E+00 -0.6312610E-17  0.2591513E-02
    1       -4.947654   1.000000
    2        1.132258   1.000000
    3        3.860896   1.000000
    4        4.045940   1.000000
    5        7.797443   0.000000
    6        9.520151   0.000000
    7       10.345436   0.000000
    8       10.388080   0.000000
 
  0.3809524E+00  0.1428571E+00 -0.7545932E-17  0.2591513E-02
    1       -4.611058   1.000000
    2        0.404820   1.000000
    3        3.629675   1.000000
    4        3.982499   1.000000
    5        7.800899   0.000000
    6        9.496663   0.000000
    7       10.303868   0.000000
    8       10.766220   0.000000
 
  0.4285714E+00  0.1428571E+00  0.7941766E-17  0.2591513E-02
    1       -4.256827   1.000000
    2       -0.249724   1.000000
    3        3.422491   1.000000
    4        3.962594   1.000000
    5        7.780892   0.000000
    6        9.430010   0.000000
    7       10.169698   0.000000
    8       11.405558   0.000000
 
  0.4761905E+00  0.1428571E+00  0.1041483E-16  0.2591513E-02
    1       -3.927048   1.000000
    2       -0.782007   1.000000
    3        3.247558   1.000000
    4        3.986283   1.000000
    5        7.776216   0.000000
    6        9.372987   0.000000
    7       10.024855   0.000000
    8       12.168706   0.000000
 
 -0.4761905E+00  0.1428571E+00  0.2043354E-16  0.2591513E-02
    1       -3.708547   1.000000
    2       -1.101460   1.000000
    3        3.110499   1.000000
    4        4.051509   1.000000
    5        7.804034   0.000000
    6        9.346388   0.000000
    7        9.891530   0.000000
    8       12.987523   0.000000
 
 -0.4285714E+00  0.1428571E+00 -0.2243315E-16  0.2591513E-02
    1       -3.711388   1.000000
    2       -1.096327   1.000000
    3        3.016029   1.000000
    4        4.156222   1.000000
    5        7.869044   0.000000
    6        9.356113   0.000000
    7        9.782676   0.000000
    8       13.751042   0.000000
 
 -0.3809524E+00  0.1428571E+00  0.2537966E-16  0.2591513E-02
    1       -3.933594   1.000000
    2       -0.769098   1.000000
    3        2.966970   1.000000
    4        4.296478   1.000000
    5        7.969695   0.000000
    6        9.403633   0.000000
    7        9.697086   0.000000
    8       13.573965   0.000000
 
 -0.3333333E+00  0.1428571E+00 -0.7660056E-18  0.2591513E-02
    1       -4.264280   1.000000
    2       -0.233331   1.000000
    3        2.968159   1.000000
    4        4.467045   1.000000
    5        8.100538   0.000000
    6        9.481445   0.000000
    7        9.624282   0.000000
    8       12.901968   0.000000
 
 -0.2857143E+00  0.1428571E+00  0.1187846E-16  0.2591513E-02
    1       -4.618216   1.000000
    2        0.418935   1.000000
    3        3.024901   1.000000
    4        4.661043   1.000000
    5        8.252494   0.000000
    6        9.535371   0.000000
    7        9.563285   0.000000
    8       12.224604   0.000000
 
 -0.2380952E+00  0.1428571E+00 -0.3232651E-17  0.2591513E-02
    1       -4.953900   1.000000
    2        1.132441   1.000000
    3        3.147793   1.000000
    4        4.867860   1.000000
    5        8.413613   0.000000
    6        9.391435   0.000000
    7        9.588274   0.000000
    8       11.664245   0.000000
 
 -0.1904762E+00  0.1428571E+00 -0.9551676E-17  0.2591513E-02
    1       -5.252196   1.000000
    2        1.855678   1.000000
    3        3.360323   1.000000
    4        5.070920   1.000000
    5        8.563006   0.000000
    6        9.173566   0.000000
    7        9.454438   0.000000
    8       11.324390   0.000000
 
 -0.1428571E+00  0.1428571E+00  0.1188487E-16  0.1295756E-02
    1       -5.503375   1.000000
    2        2.511767   1.000000
    3        3.712392   1.000000
    4        5.245544   1.000000
    5        8.639635   0.000000
    6        8.923745   0.000000
    7        9.176372   0.000000
    8       11.196605   0.000000
 
  0.1904762E+00  0.1904762E+00 -0.2179722E-17  0.6478782E-03
    1       -5.573229   1.000000
    2        3.170315   1.000000
    3        4.261653   1.000000
    4        4.261663   1.000000
    5        7.186865   0.000000
    6        9.627872   0.000000
    7       10.338293   0.000000
    8       10.338306   0.000000
 
  0.2380952E+00  0.1904762E+00 -0.1233323E-17  0.2591513E-02
    1       -5.391548   1.000000
    2        2.640592   1.000000
    3        4.056761   1.000000
    4        4.072228   1.000000
    5        7.136259   0.000000
    6        9.356935   0.000000
    7       10.592698   0.000000
    8       10.691599   0.000000
 
  0.2857143E+00  0.1904762E+00 -0.5009496E-17  0.2591513E-02
    1       -5.156515   1.000000
    2        1.985886   1.000000
    3        3.804216   1.000000
    4        3.919160   1.000000
    5        7.259570   0.000000
    6        9.222662   0.000000
    7       10.605071   0.000000
    8       10.928090   0.000000
 
  0.3333333E+00  0.1904762E+00 -0.4389628E-17  0.2591513E-02
    1       -4.872398   1.000000
    2        1.291354   1.000000
    3        3.517377   1.000000
    4        3.807171   1.000000
    5        7.409839   0.000000
    6        9.322525   0.000000
    7       10.510970   0.000000
    8       11.010557   0.000000
 
  0.3809524E+00  0.1904762E+00 -0.7175760E-17  0.2591513E-02
    1       -4.546915   1.000000
    2        0.602834   1.000000
    3        3.231718   1.000000
    4        3.739594   1.000000
    5        7.488978   0.000000
    6        9.701794   0.000000
    7       10.390460   0.000000
    8       10.959206   0.000000
 
  0.4285714E+00  0.1904762E+00  0.3830028E-18  0.2591513E-02
    1       -4.195232   1.000000
    2       -0.042672   1.000000
    3        2.969427   1.000000
    4        3.717294   1.000000
    5        7.512756   0.000000
    6       10.261319   0.000000
    7       10.311710   0.000000
    8       10.833402   0.000000
 
  0.4761905E+00  0.1904762E+00 -0.8503198E-18  0.2591513E-02
    1       -3.849349   1.000000
    2       -0.598736   1.000000
    3        2.743107   1.000000
    4        3.740422   1.000000
    5        7.534874   0.000000
    6       10.167286   0.000000
    7       10.674865   0.000000
    8       11.056778   0.000000
 
 -0.4761905E+00  0.1904762E+00  0.2537324E-16  0.2591513E-02
    1       -3.580377   1.000000
    2       -0.987673   1.000000
    3        2.560186   1.000000
    4        3.807596   1.000000
    5        7.587370   0.000000
    6       10.094859   0.000000
    7       10.519575   0.000000
    8       11.904106   0.000000
 
 -0.4285714E+00  0.1904762E+00 -0.1749344E-16  0.2591513E-02
    1       -3.504536   1.000000
    2       -1.089670   1.000000
    3        2.426093   1.000000
    4        3.917201   1.000000
    5        7.681345   0.000000
    6       10.054386   0.000000
    7       10.380445   0.000000
    8       12.813374   0.000000
 
 -0.3809524E+00  0.1904762E+00 -0.2243315E-16  0.2591513E-02
    1       -3.670133   1.000000
    2       -0.856433   1.000000
    3        2.346587   1.000000
    4        4.065258   1.000000
    5        7.818186   0.000000
    6       10.046595   0.000000
    7       10.258951   0.000000
    8       13.586861   0.000000
 
 -0.3333333E+00  0.1904762E+00 -0.2082324E-16  0.2591513E-02
    1       -3.980546   1.000000
    2       -0.389702   1.000000
    3        2.329112   1.000000
    4        4.246624   1.000000
    5        7.992019   0.000000
    6       10.066258   0.000000
    7       10.141935   0.000000
    8       12.816048   0.000000
 
 -0.2857143E+00  0.1904762E+00 -0.7660056E-18  0.2591513E-02
    1       -4.333200   1.000000
    2        0.195075   1.000000
    3        2.386835   1.000000
    4        4.453197   1.000000
    5        8.190657   0.000000
    6        9.997720   0.000000
    7       10.088393   0.000000
    8       12.084407   0.000000
 
 -0.2380952E+00  0.1904762E+00  0.1187846E-16  0.2591513E-02
    1       -4.676439   1.000000
    2        0.816667   1.000000
    3        2.545863   1.000000
    4        4.673208   1.000000
    5        8.391693   0.000000
    6        9.779113   0.000000
    7       10.036362   0.000000
    8       11.519253   0.000000
 
 -0.1904762E+00  0.1904762E+00 -0.3232651E-17  0.1295756E-02
    1       -4.986675   1.000000
    2        1.393462   1.000000
    3        2.855897   1.000000
    4        4.888189   1.000000
    5        8.551284   0.000000
    6        9.481907   0.000000
    7        9.786702   0.000000
    8       11.277209   0.000000
 
  0.2380952E+00  0.2380952E+00 -0.2724652E-17  0.6478782E-03
    1       -5.227885   1.000000
    2        2.329089   1.000000
    3        3.873878   1.000000
    4        3.873888   1.000000
    5        6.867471   0.000000
    6        8.965729   0.000000
    7       11.142480   0.000000
    8       11.142493   0.000000
 
  0.2857143E+00  0.2380952E+00 -0.1578152E-17  0.2591513E-02
    1       -5.010292   1.000000
    2        1.837253   1.000000
    3        3.650844   1.000000
    4        3.711418   1.000000
    5        6.840847   0.000000
    6        8.686059   0.000000
    7       11.389053   0.000000
    8       11.488233   0.000000
 
  0.3333333E+00  0.2380952E+00 -0.3156305E-17  0.2591513E-02
    1       -4.742094   1.000000
    2        1.263795   1.000000
    3        3.342075   1.000000
    4        3.590373   1.000000
    5        6.981737   0.000000
    6        8.601224   0.000000
    7       11.403248   0.000000
    8       11.667509   0.000000
 
  0.3809524E+00  0.2380952E+00 -0.5942437E-17  0.2591513E-02
    1       -4.429504   1.000000
    2        0.661029   1.000000
    3        2.996029   1.000000
    4        3.514138   1.000000
    5        7.124201   0.000000
    6        8.796034   0.000000
    7       11.319326   0.000000
    8       11.678531   0.000000
 
  0.4285714E+00  0.2380952E+00  0.1616325E-17  0.2591513E-02
    1       -4.083903   1.000000
    2        0.067839   1.000000
    3        2.662214   1.000000
    4        3.484923   1.000000
    5        7.193986   0.000000
    6        9.282382   0.000000
    7       11.210639   0.000000
    8       11.579048   0.000000
 
  0.4761905E+00  0.2380952E+00 -0.9788402E-17  0.2591513E-02
    1       -3.729905   1.000000
    2       -0.474881   1.000000
    3        2.367290   1.000000
    4        3.502216   1.000000
    5        7.235670   0.000000
    6        9.964048   0.000000
    7       11.107423   0.000000
    8       11.425030   0.000000
 
 -0.4761905E+00  0.2380952E+00  0.1272878E-16  0.2591513E-02
    1       -3.423373   1.000000
    2       -0.899125   1.000000
    3        2.124914   1.000000
    4        3.565902   1.000000
    5        7.298449   0.000000
    6       10.712522   0.000000
    7       11.084523   0.000000
    8       11.256935   0.000000
 
 -0.4285714E+00  0.2380952E+00  0.2537324E-16  0.2591513E-02
    1       -3.275006   1.000000
    2       -1.088619   1.000000
    3        1.943433   1.000000
    4        3.673679   1.000000
    5        7.401775   0.000000
    6       10.885479   0.000000
    7       11.092741   0.000000
    8       11.747604   0.000000
 
 -0.3809524E+00  0.2380952E+00 -0.1749344E-16  0.2591513E-02
    1       -3.377771   1.000000
    2       -0.950901   1.000000
    3        1.831274   1.000000
    4        3.822231   1.000000
    5        7.552398   0.000000
    6       10.857268   0.000000
    7       10.936294   0.000000
    8       12.685634   0.000000
 
 -0.3333333E+00  0.2380952E+00 -0.1588353E-16  0.2591513E-02
    1       -3.661805   1.000000
    2       -0.564952   1.000000
    3        1.802373   1.000000
    4        4.006537   1.000000
    5        7.745291   0.000000
    6       10.768228   0.000000
    7       10.833911   0.000000
    8       12.755684   0.000000
 
 -0.2857143E+00  0.2380952E+00  0.1434510E-16  0.2591513E-02
    1       -4.009736   1.000000
    2       -0.073139   1.000000
    3        1.882434   1.000000
    4        4.219069   1.000000
    5        7.970119   0.000000
    6       10.537612   0.000000
    7       10.782339   0.000000
    8       12.022319   0.000000
 
 -0.2380952E+00  0.2380952E+00 -0.7660056E-18  0.1295756E-02
    1       -4.357272   1.000000
    2        0.412909   1.000000
    3        2.116416   1.000000
    4        4.447605   1.000000
    5        8.202677   0.000000
    6       10.195736   0.000000
    7       10.538599   0.000000
    8       11.569268   0.000000
 