       N       E                     dE             d eps       ncg     rms          rms(c)
DAV:   1     0.147981479805E+00    0.14798E+00   -0.22271E+03  4616   0.436E+02
DAV:   2    -0.108751691104E+02   -0.11023E+02   -0.10812E+02  7152   0.601E+01
DAV:   3    -0.109976070189E+02   -0.12244E+00   -0.12244E+00  5552   0.795E+00
DAV:   4    -0.109980065929E+02   -0.39957E-03   -0.39957E-03  7552   0.489E-01
DAV:   5    -0.109980067589E+02   -0.16599E-06   -0.16599E-06  5688   0.840E-03    0.519E+00
DAV:   6    -0.108821035128E+02    0.11590E+00   -0.75169E-02  5512   0.142E+00    0.318E+00
DAV:   7    -0.108288624306E+02    0.53241E-01   -0.14488E-01  5848   0.211E+00    0.177E-01
DAV:   8    -0.108298774129E+02   -0.10150E-02   -0.34777E-03  5240   0.431E-01    0.717E-02
DAV:   9    -0.108300816195E+02   -0.20421E-03   -0.19999E-04  6552   0.107E-01    0.559E-02
DAV:  10    -0.108301053340E+02   -0.23714E-04   -0.26556E-05  5416   0.384E-02    0.809E-03
DAV:  11    -0.108301051461E+02    0.18783E-06   -0.61955E-07  6456   0.523E-03
   1 F= -.10830105E+02 E0= -.10830105E+02  d E =0.000000E+00
