 vasp.5.4.4.18Apr17-6-g9f103f2a35 (build Sep 11 2019 23:05:26) complex          
  
 executed on intel-19.0.0.117-sta date 2020.06.03  12:41:28
 running on    1 total cores
 distrk:  each k-point on    1 cores,    1 groups
 distr:  one band on NCORES_PER_BAND=   1 cores,    1 groups


--------------------------------------------------------------------------------------------------------


 INCAR:
 POTCAR:    PAW_PBE Si 05Jan2001                  
 POTCAR:    PAW_PBE Si 05Jan2001                  
   VRHFIN =Si: s2p2                                                             
   LEXCH  = PE                                                                  
   EATOM  =   103.0669 eV,    7.5752 Ry                                         
                                                                                
   TITEL  = PAW_PBE Si 05Jan2001                                                
   LULTRA =        F    use ultrasoft PP ?                                      
   IUNSCR =        1    unscreen: 0-lin 1-nonlin 2-no                           
   RPACOR =    1.500    partial core radius                                     
   POMASS =   28.085; ZVAL   =    4.000    mass and valenz                      
   RCORE  =    1.900    outmost cutoff radius                                   
   RWIGS  =    2.480; RWIGS  =    1.312    wigner-seitz radius (au A)           
   ENMAX  =  245.345; ENMIN  =  184.009 eV                                      
   ICORE  =        2    local potential                                         
   LCOR   =        T    correct aug charges                                     
   LPAW   =        T    paw PP                                                  
   EAUG   =  322.069                                                            
   DEXC   =    0.000                                                            
   RMAX   =    1.950    core radius for proj-oper                               
   RAUG   =    1.300    factor for augmentation sphere                          
   RDEP   =    1.993    radius for radial grids                                 
   RDEPT  =    1.837    core radius for aug-charge                              
                                                                                
   Atomic configuration                                                         
    6 entries                                                                   
     n  l   j            E        occ.                                          
     1  0  0.50     -1785.8828   2.0000                                         
     2  0  0.50      -139.4969   2.0000                                         
     2  1  1.50       -95.5546   6.0000                                         
     3  0  0.50       -10.8127   2.0000                                         
     3  1  0.50        -4.0811   2.0000                                         
     3  2  1.50        -4.0817   0.0000                                         
   Description                                                                  
     l       E           TYP  RCUT    TYP  RCUT                                 
     0    -10.8127223     23  1.900                                             
     0     -7.6451159     23  1.900                                             
     1     -4.0811372     23  1.900                                             
     1      2.4879257     23  1.900                                             
     2     -4.0817478      7  1.900                                             
  local pseudopotential read in
  partial core-charges read in
  partial kinetic energy density read in
  atomic valenz-charges read in
  non local Contribution for L=           0  read in
    real space projection operators read in
  non local Contribution for L=           0  read in
    real space projection operators read in
  non local Contribution for L=           1  read in
    real space projection operators read in
  non local Contribution for L=           1  read in
    real space projection operators read in
    PAW grid and wavefunctions read in
 
   number of l-projection  operators is LMAX  =           4
   number of lm-projection operators is LMMAX =           8
 
  PAW_PBE Si 05Jan2001                  :
 energy of atom  1       EATOM= -103.0669
 kinetic energy error for atom=    0.0052 (will be added to EATOM!!)
 
 
 POSCAR: fcc Si:                                 
  positions in direct lattice
  velocities in cartesian coordinates
 exchange correlation table for  LEXCH =        8
   RHO(1)=    0.500       N(1)  =     2000
   RHO(2)=  100.500       N(2)  =     4000
 


--------------------------------------------------------------------------------------------------------


 ion  position               nearest neighbor table
   1  0.000  0.000  0.000-   2 2.37   2 2.37   2 2.37   2 2.37
   2  0.250  0.250  0.250-   1 2.37   1 2.37   1 2.37   1 2.37
 
  LATTYP: Found a face centered cubic cell.
 ALAT       =     5.4658539138
  
  Lattice vectors:
  
 A1 = (   2.7329269569,   2.7329269569,   0.0000000000)
 A2 = (   0.0000000000,   2.7329269569,   2.7329269569)
 A3 = (   2.7329269569,   0.0000000000,   2.7329269569)


Analysis of symmetry for initial positions (statically):
=====================================================================
 Subroutine PRICEL returns:
 Original cell was already a primitive cell.
 

 Routine SETGRP: Setting up the symmetry group for a 
 face centered cubic supercell.


 Subroutine GETGRP returns: Found 48 space group operations
 (whereof 24 operations were pure point group operations)
 out of a pool of 48 trial point group operations.


The static configuration has the point symmetry T_d .
 The point group associated with its full space group is O_h .


Analysis of symmetry for dynamics (positions and initial velocities):
=====================================================================
 Subroutine PRICEL returns:
 Original cell was already a primitive cell.
 

 Routine SETGRP: Setting up the symmetry group for a 
 face centered cubic supercell.


 Subroutine GETGRP returns: Found 48 space group operations
 (whereof 24 operations were pure point group operations)
 out of a pool of 48 trial point group operations.


The dynamic configuration has the point symmetry T_d .
 The point group associated with its full space group is O_h .


 Subroutine INISYM returns: Found 48 space group operations
 (whereof 24 operations are pure point group operations),
 and found     1 'primitive' translations

 
 
 KPOINTS: k-points                                

Automatic generation of k-mesh.
Space group operators:
 irot       det(A)        alpha          n_x          n_y          n_z        tau_x        tau_y        tau_z
    1     1.000000     0.000001     1.000000     0.000000     0.000000     0.000000     0.000000     0.000000
    2     1.000000   120.000000    -0.577350    -0.577350    -0.577350     0.000000     0.000000     0.000000
    3     1.000000   120.000000     0.577350     0.577350     0.577350     0.000000     0.000000     0.000000
    4    -1.000000    90.000000     0.000000    -1.000000     0.000000     0.000000     0.000000     0.000000
    5    -1.000000   180.000000     0.707107     0.707107     0.000000     0.000000     0.000000     0.000000
    6    -1.000000    90.000000     1.000000    -0.000000    -0.000000     0.000000     0.000000     0.000000
    7     1.000000   180.000000     0.000000    -1.000000    -0.000000     0.000000     0.000000     0.000000
    8     1.000000   120.000000     0.577350     0.577350    -0.577350     0.000000     0.000000     0.000000
    9     1.000000   120.000000     0.577350    -0.577350    -0.577350     0.000000     0.000000     0.000000
   10    -1.000000    90.000000     0.000000     1.000000    -0.000000     0.000000     0.000000     0.000000
   11    -1.000000    90.000000     0.000000     0.000000    -1.000000     0.000000     0.000000     0.000000
   12    -1.000000   180.000000    -0.000000     0.707107     0.707107     0.000000     0.000000     0.000000
   13     1.000000   120.000000    -0.577350     0.577350     0.577350     0.000000     0.000000     0.000000
   14     1.000000   120.000000    -0.577350     0.577350    -0.577350     0.000000     0.000000     0.000000
   15     1.000000   180.000000    -0.000000     0.000000    -1.000000     0.000000     0.000000     0.000000
   16    -1.000000    90.000000    -1.000000    -0.000000     0.000000     0.000000     0.000000     0.000000
   17    -1.000000   180.000000     0.707107     0.000000     0.707107     0.000000     0.000000     0.000000
   18    -1.000000    90.000000     0.000000     0.000000     1.000000     0.000000     0.000000     0.000000
   19     1.000000   120.000000    -0.577350    -0.577350     0.577350     0.000000     0.000000     0.000000
   20     1.000000   180.000000     1.000000     0.000000     0.000000     0.000000     0.000000     0.000000
   21     1.000000   120.000000     0.577350    -0.577350     0.577350     0.000000     0.000000     0.000000
   22    -1.000000   180.000000     0.707107    -0.707107    -0.000000     0.000000     0.000000     0.000000
   23    -1.000000   180.000000     0.707107     0.000000    -0.707107     0.000000     0.000000     0.000000
   24    -1.000000   180.000000    -0.000000    -0.707107     0.707107     0.000000     0.000000     0.000000
   25    -1.000000     0.000001     1.000000     0.000000     0.000000     0.250000     0.250000     0.250000
   26    -1.000000   120.000000    -0.577350    -0.577350    -0.577350     0.250000     0.250000     0.250000
   27    -1.000000   120.000000     0.577350     0.577350     0.577350     0.250000     0.250000     0.250000
   28     1.000000    90.000000     0.000000    -1.000000     0.000000     0.250000     0.250000     0.250000
   29     1.000000   180.000000     0.707107     0.707107     0.000000     0.250000     0.250000     0.250000
   30     1.000000    90.000000     1.000000    -0.000000    -0.000000     0.250000     0.250000     0.250000
   31    -1.000000   180.000000     0.000000    -1.000000    -0.000000     0.250000     0.250000     0.250000
   32    -1.000000   120.000000     0.577350     0.577350    -0.577350     0.250000     0.250000     0.250000
   33    -1.000000   120.000000     0.577350    -0.577350    -0.577350     0.250000     0.250000     0.250000
   34     1.000000    90.000000     0.000000     1.000000    -0.000000     0.250000     0.250000     0.250000
   35     1.000000    90.000000     0.000000     0.000000    -1.000000     0.250000     0.250000     0.250000
   36     1.000000   180.000000    -0.000000     0.707107     0.707107     0.250000     0.250000     0.250000
   37    -1.000000   120.000000    -0.577350     0.577350     0.577350     0.250000     0.250000     0.250000
   38    -1.000000   120.000000    -0.577350     0.577350    -0.577350     0.250000     0.250000     0.250000
   39    -1.000000   180.000000    -0.000000     0.000000    -1.000000     0.250000     0.250000     0.250000
   40     1.000000    90.000000    -1.000000    -0.000000     0.000000     0.250000     0.250000     0.250000
   41     1.000000   180.000000     0.707107     0.000000     0.707107     0.250000     0.250000     0.250000
   42     1.000000    90.000000     0.000000     0.000000     1.000000     0.250000     0.250000     0.250000
   43    -1.000000   120.000000    -0.577350    -0.577350     0.577350     0.250000     0.250000     0.250000
   44    -1.000000   180.000000     1.000000     0.000000     0.000000     0.250000     0.250000     0.250000
   45    -1.000000   120.000000     0.577350    -0.577350     0.577350     0.250000     0.250000     0.250000
   46     1.000000   180.000000     0.707107    -0.707107    -0.000000     0.250000     0.250000     0.250000
   47     1.000000   180.000000     0.707107     0.000000    -0.707107     0.250000     0.250000     0.250000
   48     1.000000   180.000000    -0.000000    -0.707107     0.707107     0.250000     0.250000     0.250000
 
 Subroutine IBZKPT returns following result:
 ===========================================
 
 Found    286 irreducible k-points:
 
 Following reciprocal coordinates:
            Coordinates               Weight
  0.000000  0.000000  0.000000      1.000000
  0.047619 -0.000000 -0.000000      8.000000
  0.095238 -0.000000 -0.000000      8.000000
  0.142857 -0.000000 -0.000000      8.000000
  0.190476  0.000000  0.000000      8.000000
  0.238095  0.000000  0.000000      8.000000
  0.285714 -0.000000 -0.000000      8.000000
  0.333333  0.000000  0.000000      8.000000
  0.380952  0.000000  0.000000      8.000000
  0.428571 -0.000000 -0.000000      8.000000
  0.476190  0.000000  0.000000      8.000000
  0.047619  0.047619 -0.000000      6.000000
  0.095238  0.047619 -0.000000     24.000000
  0.142857  0.047619 -0.000000     24.000000
  0.190476  0.047619 -0.000000     24.000000
  0.238095  0.047619  0.000000     24.000000
  0.285714  0.047619  0.000000     24.000000
  0.333333  0.047619 -0.000000     24.000000
  0.380952  0.047619  0.000000     24.000000
  0.428571  0.047619  0.000000     24.000000
  0.476190  0.047619  0.000000     24.000000
 -0.476190  0.047619 -0.000000     24.000000
 -0.428571  0.047619  0.000000     24.000000
 -0.380952  0.047619  0.000000     24.000000
 -0.333333  0.047619  0.000000     24.000000
 -0.285714  0.047619  0.000000     24.000000
 -0.238095  0.047619 -0.000000     24.000000
 -0.190476  0.047619 -0.000000     24.000000
 -0.142857  0.047619 -0.000000     24.000000
 -0.095238  0.047619 -0.000000     24.000000
 -0.047619  0.047619  0.000000     12.000000
  0.095238  0.095238 -0.000000      6.000000
  0.142857  0.095238 -0.000000     24.000000
  0.190476  0.095238 -0.000000     24.000000
  0.238095  0.095238 -0.000000     24.000000
  0.285714  0.095238  0.000000     24.000000
  0.333333  0.095238 -0.000000     24.000000
  0.380952  0.095238 -0.000000     24.000000
  0.428571  0.095238 -0.000000     24.000000
  0.476190  0.095238  0.000000     24.000000
 -0.476190  0.095238 -0.000000     24.000000
 -0.428571  0.095238 -0.000000     24.000000
 -0.380952  0.095238 -0.000000     24.000000
 -0.333333  0.095238  0.000000     24.000000
 -0.285714  0.095238  0.000000     24.000000
 -0.238095  0.095238  0.000000     24.000000
 -0.190476  0.095238  0.000000     24.000000
 -0.142857  0.095238 -0.000000     24.000000
 -0.095238  0.095238  0.000000     12.000000
  0.142857  0.142857 -0.000000      6.000000
  0.190476  0.142857 -0.000000     24.000000
  0.238095  0.142857 -0.000000     24.000000
  0.285714  0.142857 -0.000000     24.000000
  0.333333  0.142857 -0.000000     24.000000
  0.380952  0.142857 -0.000000     24.000000
  0.428571  0.142857  0.000000     24.000000
  0.476190  0.142857  0.000000     24.000000
 -0.476190  0.142857  0.000000     24.000000
 -0.428571  0.142857 -0.000000     24.000000
 -0.380952  0.142857  0.000000     24.000000
 -0.333333  0.142857 -0.000000     24.000000
 -0.285714  0.142857  0.000000     24.000000
 -0.238095  0.142857 -0.000000     24.000000
 -0.190476  0.142857 -0.000000     24.000000
 -0.142857  0.142857  0.000000     12.000000
  0.190476  0.190476 -0.000000      6.000000
  0.238095  0.190476 -0.000000     24.000000
  0.285714  0.190476 -0.000000     24.000000
  0.333333  0.190476 -0.000000     24.000000
  0.380952  0.190476 -0.000000     24.000000
  0.428571  0.190476  0.000000     24.000000
  0.476190  0.190476 -0.000000     24.000000
 -0.476190  0.190476  0.000000     24.000000
 -0.428571  0.190476 -0.000000     24.000000
 -0.380952  0.190476 -0.000000     24.000000
 -0.333333  0.190476 -0.000000     24.000000
 -0.285714  0.190476 -0.000000     24.000000
 -0.238095  0.190476  0.000000     24.000000
 -0.190476  0.190476 -0.000000     12.000000
  0.238095  0.238095 -0.000000      6.000000
  0.285714  0.238095 -0.000000     24.000000
  0.333333  0.238095 -0.000000     24.000000
  0.380952  0.238095 -0.000000     24.000000
  0.428571  0.238095  0.000000     24.000000
  0.476190  0.238095 -0.000000     24.000000
 -0.476190  0.238095  0.000000     24.000000
 -0.428571  0.238095  0.000000     24.000000
 -0.380952  0.238095 -0.000000     24.000000
 -0.333333  0.238095 -0.000000     24.000000
 -0.285714  0.238095  0.000000     24.000000
 -0.238095  0.238095 -0.000000     12.000000
  0.285714  0.285714 -0.000000      6.000000
  0.333333  0.285714 -0.000000     24.000000
  0.380952  0.285714 -0.000000     24.000000
  0.428571  0.285714 -0.000000     24.000000
  0.476190  0.285714 -0.000000     24.000000
 -0.476190  0.285714 -0.000000     24.000000
 -0.428571  0.285714  0.000000     24.000000
 -0.380952  0.285714  0.000000     24.000000
 -0.333333  0.285714  0.000000     24.000000
 -0.285714  0.285714  0.000000     12.000000
  0.333333  0.333333 -0.000000      6.000000
  0.380952  0.333333 -0.000000     24.000000
  0.428571  0.333333 -0.000000     24.000000
  0.476190  0.333333 -0.000000     24.000000
 -0.476190  0.333333  0.000000     24.000000
 -0.428571  0.333333 -0.000000     24.000000
 -0.380952  0.333333  0.000000     24.000000
 -0.333333  0.333333 -0.000000     12.000000
  0.380952  0.380952 -0.000000      6.000000
  0.428571  0.380952 -0.000000     24.000000
  0.476190  0.380952 -0.000000     24.000000
 -0.476190  0.380952  0.000000     24.000000
 -0.428571  0.380952  0.000000     24.000000
 -0.380952  0.380952 -0.000000     12.000000
  0.428571  0.428571 -0.000000      6.000000
  0.476190  0.428571 -0.000000     24.000000
 -0.476190  0.428571  0.000000     24.000000
 -0.428571  0.428571  0.000000     12.000000
  0.476190  0.476190 -0.000000      6.000000
 -0.476190  0.476190 -0.000000     12.000000
  0.142857  0.095238  0.047619     24.000000
  0.190476  0.095238  0.047619     48.000000
  0.238095  0.095238  0.047619     48.000000
  0.285714  0.095238  0.047619     48.000000
  0.333333  0.095238  0.047619     48.000000
  0.380952  0.095238  0.047619     48.000000
  0.428571  0.095238  0.047619     48.000000
  0.476190  0.095238  0.047619     48.000000
 -0.476190  0.095238  0.047619     48.000000
  0.190476  0.142857  0.047619     24.000000
  0.238095  0.142857  0.047619     48.000000
  0.285714  0.142857  0.047619     48.000000
  0.333333  0.142857  0.047619     48.000000
  0.380952  0.142857  0.047619     48.000000
  0.428571  0.142857  0.047619     48.000000
  0.476190  0.142857  0.047619     48.000000
 -0.476190  0.142857  0.047619     48.000000
 -0.428571  0.142857  0.047619     48.000000
 -0.380952  0.142857  0.047619     48.000000
 -0.333333  0.142857  0.047619     48.000000
 -0.285714  0.142857  0.047619     48.000000
 -0.238095  0.142857  0.047619     48.000000
 -0.190476  0.142857  0.047619     48.000000
 -0.142857  0.142857  0.047619     48.000000
 -0.095238  0.142857  0.047619     24.000000
  0.238095  0.190476  0.047619     24.000000
  0.285714  0.190476  0.047619     48.000000
  0.333333  0.190476  0.047619     48.000000
  0.380952  0.190476  0.047619     48.000000
  0.428571  0.190476  0.047619     48.000000
  0.476190  0.190476  0.047619     48.000000
 -0.476190  0.190476  0.047619     48.000000
 -0.428571  0.190476  0.047619     48.000000
 -0.380952  0.190476  0.047619     48.000000
 -0.333333  0.190476  0.047619     48.000000
 -0.285714  0.190476  0.047619     48.000000
 -0.238095  0.190476  0.047619     48.000000
 -0.190476  0.190476  0.047619     48.000000
 -0.142857  0.190476  0.047619     24.000000
  0.285714  0.238095  0.047619     24.000000
  0.333333  0.238095  0.047619     48.000000
  0.380952  0.238095  0.047619     48.000000
  0.428571  0.238095  0.047619     48.000000
  0.476190  0.238095  0.047619     48.000000
 -0.476190  0.238095  0.047619     48.000000
 -0.428571  0.238095  0.047619     48.000000
 -0.380952  0.238095  0.047619     48.000000
 -0.333333  0.238095  0.047619     48.000000
 -0.285714  0.238095  0.047619     48.000000
 -0.238095  0.238095  0.047619     48.000000
 -0.190476  0.238095  0.047619     24.000000
  0.333333  0.285714  0.047619     24.000000
  0.380952  0.285714  0.047619     48.000000
  0.428571  0.285714  0.047619     48.000000
  0.476190  0.285714  0.047619     48.000000
 -0.476190  0.285714  0.047619     48.000000
 -0.428571  0.285714  0.047619     48.000000
 -0.380952  0.285714  0.047619     48.000000
 -0.333333  0.285714  0.047619     48.000000
 -0.285714  0.285714  0.047619     48.000000
 -0.238095  0.285714  0.047619     24.000000
  0.380952  0.333333  0.047619     24.000000
  0.428571  0.333333  0.047619     48.000000
  0.476190  0.333333  0.047619     48.000000
 -0.476190  0.333333  0.047619     48.000000
 -0.428571  0.333333  0.047619     48.000000
 -0.380952  0.333333  0.047619     48.000000
 -0.333333  0.333333  0.047619     48.000000
 -0.285714  0.333333  0.047619     24.000000
  0.428571  0.380952  0.047619     24.000000
  0.476190  0.380952  0.047619     48.000000
 -0.476190  0.380952  0.047619     48.000000
 -0.428571  0.380952  0.047619     48.000000
 -0.380952  0.380952  0.047619     48.000000
 -0.333333  0.380952  0.047619     24.000000
  0.476190  0.428571  0.047619     24.000000
 -0.476190  0.428571  0.047619     48.000000
 -0.428571  0.428571  0.047619     48.000000
 -0.380952  0.428571  0.047619     24.000000
 -0.476190  0.476190  0.047619     24.000000
 -0.428571  0.476190  0.047619     24.000000
  0.285714  0.190476  0.095238     24.000000
  0.333333  0.190476  0.095238     48.000000
  0.380952  0.190476  0.095238     48.000000
  0.428571  0.190476  0.095238     48.000000
  0.476190  0.190476  0.095238     48.000000
 -0.476190  0.190476  0.095238     48.000000
 -0.428571  0.190476  0.095238     48.000000
  0.333333  0.238095  0.095238     24.000000
  0.380952  0.238095  0.095238     48.000000
  0.428571  0.238095  0.095238     48.000000
  0.476190  0.238095  0.095238     48.000000
 -0.476190  0.238095  0.095238     48.000000
 -0.428571  0.238095  0.095238     48.000000
 -0.380952  0.238095  0.095238     48.000000
 -0.333333  0.238095  0.095238     48.000000
 -0.285714  0.238095  0.095238     48.000000
 -0.238095  0.238095  0.095238     48.000000
 -0.190476  0.238095  0.095238     48.000000
 -0.142857  0.238095  0.095238     24.000000
  0.380952  0.285714  0.095238     24.000000
  0.428571  0.285714  0.095238     48.000000
  0.476190  0.285714  0.095238     48.000000
 -0.476190  0.285714  0.095238     48.000000
 -0.428571  0.285714  0.095238     48.000000
 -0.380952  0.285714  0.095238     48.000000
 -0.333333  0.285714  0.095238     48.000000
 -0.285714  0.285714  0.095238     48.000000
 -0.238095  0.285714  0.095238     48.000000
 -0.190476  0.285714  0.095238     24.000000
  0.428571  0.333333  0.095238     24.000000
  0.476190  0.333333  0.095238     48.000000
 -0.476190  0.333333  0.095238     48.000000
 -0.428571  0.333333  0.095238     48.000000
 -0.380952  0.333333  0.095238     48.000000
 -0.333333  0.333333  0.095238     48.000000
 -0.285714  0.333333  0.095238     48.000000
 -0.238095  0.333333  0.095238     24.000000
  0.476190  0.380952  0.095238     24.000000
 -0.476190  0.380952  0.095238     48.000000
 -0.428571  0.380952  0.095238     48.000000
 -0.380952  0.380952  0.095238     48.000000
 -0.333333  0.380952  0.095238     48.000000
 -0.285714  0.380952  0.095238     24.000000
 -0.476190  0.428571  0.095238     24.000000
 -0.428571  0.428571  0.095238     48.000000
 -0.380952  0.428571  0.095238     48.000000
 -0.333333  0.428571  0.095238     24.000000
 -0.428571  0.476190  0.095238     24.000000
 -0.380952  0.476190  0.095238     24.000000
  0.428571  0.285714  0.142857     24.000000
  0.476190  0.285714  0.142857     48.000000
 -0.476190  0.285714  0.142857     48.000000
 -0.428571  0.285714  0.142857     48.000000
 -0.380952  0.285714  0.142857     48.000000
  0.476190  0.333333  0.142857     24.000000
 -0.476190  0.333333  0.142857     48.000000
 -0.428571  0.333333  0.142857     48.000000
 -0.380952  0.333333  0.142857     48.000000
 -0.333333  0.333333  0.142857     48.000000
 -0.285714  0.333333  0.142857     48.000000
 -0.238095  0.333333  0.142857     48.000000
 -0.190476  0.333333  0.142857     24.000000
 -0.476190  0.380952  0.142857     24.000000
 -0.428571  0.380952  0.142857     48.000000
 -0.380952  0.380952  0.142857     48.000000
 -0.333333  0.380952  0.142857     48.000000
 -0.285714  0.380952  0.142857     48.000000
 -0.238095  0.380952  0.142857     24.000000
 -0.428571  0.428571  0.142857     24.000000
 -0.380952  0.428571  0.142857     48.000000
 -0.333333  0.428571  0.142857     48.000000
 -0.285714  0.428571  0.142857     24.000000
 -0.380952  0.476190  0.142857     24.000000
 -0.333333  0.476190  0.142857     24.000000
 -0.428571  0.380952  0.190476     24.000000
 -0.380952  0.380952  0.190476     48.000000
 -0.333333  0.380952  0.190476     48.000000
 -0.380952  0.428571  0.190476     24.000000
 -0.333333  0.428571  0.190476     48.000000
 -0.285714  0.428571  0.190476     48.000000
 -0.238095  0.428571  0.190476     24.000000
 -0.333333  0.476190  0.190476     24.000000
 -0.285714  0.476190  0.190476     24.000000
 -0.285714  0.476190  0.238095     24.000000
 
 Following cartesian coordinates:
            Coordinates               Weight
  0.000000  0.000000  0.000000      1.000000
  0.033977  0.033977 -0.033977      8.000000
  0.067954  0.067954 -0.067954      8.000000
  0.101932  0.101932 -0.101932      8.000000
  0.135909  0.135909 -0.135909      8.000000
  0.169886  0.169886 -0.169886      8.000000
  0.203863  0.203863 -0.203863      8.000000
  0.237840  0.237840 -0.237840      8.000000
  0.271817  0.271817 -0.271817      8.000000
  0.305795  0.305795 -0.305795      8.000000
  0.339772  0.339772 -0.339772      8.000000
 -0.000000  0.067954  0.000000      6.000000
  0.033977  0.101932 -0.033977     24.000000
  0.067954  0.135909 -0.067954     24.000000
  0.101932  0.169886 -0.101932     24.000000
  0.135909  0.203863 -0.135909     24.000000
  0.169886  0.237840 -0.169886     24.000000
  0.203863  0.271817 -0.203863     24.000000
  0.237840  0.305795 -0.237840     24.000000
  0.271817  0.339772 -0.271817     24.000000
  0.305795  0.373749 -0.305795     24.000000
 -0.373749 -0.305795  0.373749     24.000000
 -0.339772 -0.271817  0.339772     24.000000
 -0.305795 -0.237840  0.305795     24.000000
 -0.271817 -0.203863  0.271817     24.000000
 -0.237840 -0.169886  0.237840     24.000000
 -0.203863 -0.135909  0.203863     24.000000
 -0.169886 -0.101932  0.169886     24.000000
 -0.135909 -0.067954  0.135909     24.000000
 -0.101932 -0.033977  0.101932     24.000000
 -0.067954  0.000000  0.067954     12.000000
 -0.000000  0.135909  0.000000      6.000000
  0.033977  0.169886 -0.033977     24.000000
  0.067954  0.203863 -0.067954     24.000000
  0.101932  0.237840 -0.101932     24.000000
  0.135909  0.271817 -0.135909     24.000000
  0.169886  0.305795 -0.169886     24.000000
  0.203863  0.339772 -0.203863     24.000000
  0.237840  0.373749 -0.237840     24.000000
  0.271817  0.407726 -0.271817     24.000000
 -0.407726 -0.271817  0.407726     24.000000
 -0.373749 -0.237840  0.373749     24.000000
 -0.339772 -0.203863  0.339772     24.000000
 -0.305795 -0.169886  0.305795     24.000000
 -0.271817 -0.135909  0.271817     24.000000
 -0.237840 -0.101932  0.237840     24.000000
 -0.203863 -0.067954  0.203863     24.000000
 -0.169886 -0.033977  0.169886     24.000000
 -0.135909  0.000000  0.135909     12.000000
 -0.000000  0.203863  0.000000      6.000000
  0.033977  0.237840 -0.033977     24.000000
  0.067954  0.271817 -0.067954     24.000000
  0.101932  0.305795 -0.101932     24.000000
  0.135909  0.339772 -0.135909     24.000000
  0.169886  0.373749 -0.169886     24.000000
  0.203863  0.407726 -0.203863     24.000000
  0.237840  0.441703 -0.237840     24.000000
 -0.441703 -0.237840  0.441703     24.000000
 -0.407726 -0.203863  0.407726     24.000000
 -0.373749 -0.169886  0.373749     24.000000
 -0.339772 -0.135909  0.339772     24.000000
 -0.305795 -0.101932  0.305795     24.000000
 -0.271817 -0.067954  0.271817     24.000000
 -0.237840 -0.033977  0.237840     24.000000
 -0.203863 -0.000000  0.203863     12.000000
 -0.000000  0.271817 -0.000000      6.000000
  0.033977  0.305795 -0.033977     24.000000
  0.067954  0.339772 -0.067954     24.000000
  0.101932  0.373749 -0.101932     24.000000
  0.135909  0.407726 -0.135909     24.000000
  0.169886  0.441703 -0.169886     24.000000
  0.203863  0.475680 -0.203863     24.000000
 -0.475680 -0.203863  0.475680     24.000000
 -0.441703 -0.169886  0.441703     24.000000
 -0.407726 -0.135909  0.407726     24.000000
 -0.373749 -0.101932  0.373749     24.000000
 -0.339772 -0.067954  0.339772     24.000000
 -0.305795 -0.033977  0.305795     24.000000
 -0.271817  0.000000  0.271817     12.000000
  0.000000  0.339772 -0.000000      6.000000
  0.033977  0.373749 -0.033977     24.000000
  0.067954  0.407726 -0.067954     24.000000
  0.101932  0.441703 -0.101932     24.000000
  0.135909  0.475680 -0.135909     24.000000
  0.169886  0.509658 -0.169886     24.000000
 -0.509658 -0.169886  0.509658     24.000000
 -0.475680 -0.135909  0.475680     24.000000
 -0.441703 -0.101932  0.441703     24.000000
 -0.407726 -0.067954  0.407726     24.000000
 -0.373749 -0.033977  0.373749     24.000000
 -0.339772 -0.000000  0.339772     12.000000
 -0.000000  0.407726  0.000000      6.000000
  0.033977  0.441703 -0.033977     24.000000
  0.067954  0.475680 -0.067954     24.000000
  0.101932  0.509658 -0.101932     24.000000
  0.135909  0.543635 -0.135909     24.000000
 -0.543635 -0.135909  0.543635     24.000000
 -0.509658 -0.101932  0.509658     24.000000
 -0.475680 -0.067954  0.475680     24.000000
 -0.441703 -0.033977  0.441703     24.000000
 -0.407726  0.000000  0.407726     12.000000
 -0.000000  0.475680  0.000000      6.000000
  0.033977  0.509658 -0.033977     24.000000
  0.067954  0.543635 -0.067954     24.000000
  0.101932  0.577612 -0.101932     24.000000
 -0.577612 -0.101932  0.577612     24.000000
 -0.543635 -0.067954  0.543635     24.000000
 -0.509658 -0.033977  0.509658     24.000000
 -0.475680  0.000000  0.475680     12.000000
 -0.000000  0.543635 -0.000000      6.000000
  0.033977  0.577612 -0.033977     24.000000
  0.067954  0.611589 -0.067954     24.000000
 -0.611589 -0.067954  0.611589     24.000000
 -0.577612 -0.033977  0.577612     24.000000
 -0.543635  0.000000  0.543635     12.000000
  0.000000  0.611589 -0.000000      6.000000
  0.033977  0.645566 -0.033977     24.000000
 -0.645566 -0.033977  0.645566     24.000000
 -0.611589 -0.000000  0.611589     12.000000
  0.000000  0.679544 -0.000000      6.000000
 -0.679544 -0.000000  0.679544     12.000000
  0.067954  0.135909 -0.000000     24.000000
  0.101932  0.169886 -0.033977     48.000000
  0.135909  0.203863 -0.067954     48.000000
  0.169886  0.237840 -0.101932     48.000000
  0.203863  0.271817 -0.135909     48.000000
  0.237840  0.305795 -0.169886     48.000000
  0.271817  0.339772 -0.203863     48.000000
  0.305795  0.373749 -0.237840     48.000000
 -0.373749 -0.305795  0.441703     48.000000
  0.067954  0.203863 -0.000000     24.000000
  0.101932  0.237840 -0.033977     48.000000
  0.135909  0.271817 -0.067954     48.000000
  0.169886  0.305795 -0.101932     48.000000
  0.203863  0.339772 -0.135909     48.000000
  0.237840  0.373749 -0.169886     48.000000
  0.271817  0.407726 -0.203863     48.000000
 -0.407726 -0.271817  0.475680     48.000000
 -0.373749 -0.237840  0.441703     48.000000
 -0.339772 -0.203863  0.407726     48.000000
 -0.305795 -0.169886  0.373749     48.000000
 -0.271817 -0.135909  0.339772     48.000000
 -0.237840 -0.101932  0.305795     48.000000
 -0.203863 -0.067954  0.271817     48.000000
 -0.169886 -0.033977  0.237840     48.000000
 -0.135909  0.000000  0.203863     24.000000
  0.067954  0.271817 -0.000000     24.000000
  0.101932  0.305795 -0.033977     48.000000
  0.135909  0.339772 -0.067954     48.000000
  0.169886  0.373749 -0.101932     48.000000
  0.203863  0.407726 -0.135909     48.000000
  0.237840  0.441703 -0.169886     48.000000
 -0.441703 -0.237840  0.509658     48.000000
 -0.407726 -0.203863  0.475680     48.000000
 -0.373749 -0.169886  0.441703     48.000000
 -0.339772 -0.135909  0.407726     48.000000
 -0.305795 -0.101932  0.373749     48.000000
 -0.271817 -0.067954  0.339772     48.000000
 -0.237840 -0.033977  0.305795     48.000000
 -0.203863  0.000000  0.271817     24.000000
  0.067954  0.339772  0.000000     24.000000
  0.101932  0.373749 -0.033977     48.000000
  0.135909  0.407726 -0.067954     48.000000
  0.169886  0.441703 -0.101932     48.000000
  0.203863  0.475680 -0.135909     48.000000
 -0.475680 -0.203863  0.543635     48.000000
 -0.441703 -0.169886  0.509658     48.000000
 -0.407726 -0.135909  0.475680     48.000000
 -0.373749 -0.101932  0.441703     48.000000
 -0.339772 -0.067954  0.407726     48.000000
 -0.305795 -0.033977  0.373749     48.000000
 -0.271817 -0.000000  0.339772     24.000000
  0.067954  0.407726  0.000000     24.000000
  0.101932  0.441703 -0.033977     48.000000
  0.135909  0.475680 -0.067954     48.000000
  0.169886  0.509658 -0.101932     48.000000
 -0.509658 -0.169886  0.577612     48.000000
 -0.475680 -0.135909  0.543635     48.000000
 -0.441703 -0.101932  0.509658     48.000000
 -0.407726 -0.067954  0.475680     48.000000
 -0.373749 -0.033977  0.441703     48.000000
 -0.339772  0.000000  0.407726     24.000000
  0.067954  0.475680  0.000000     24.000000
  0.101932  0.509658 -0.033977     48.000000
  0.135909  0.543635 -0.067954     48.000000
 -0.543635 -0.135909  0.611589     48.000000
 -0.509658 -0.101932  0.577612     48.000000
 -0.475680 -0.067954  0.543635     48.000000
 -0.441703 -0.033977  0.509658     48.000000
 -0.407726  0.000000  0.475680     24.000000
  0.067954  0.543635 -0.000000     24.000000
  0.101932  0.577612 -0.033977     48.000000
 -0.577612 -0.101932  0.645566     48.000000
 -0.543635 -0.067954  0.611589     48.000000
 -0.509658 -0.033977  0.577612     48.000000
 -0.475680 -0.000000  0.543635     24.000000
  0.067954  0.611589 -0.000000     24.000000
 -0.611589 -0.067954  0.679544     48.000000
 -0.577612 -0.033977  0.645566     48.000000
 -0.543635 -0.000000  0.611589     24.000000
 -0.645566 -0.033977  0.713521     24.000000
 -0.611589 -0.000000  0.679544     24.000000
  0.135909  0.271817  0.000000     24.000000
  0.169886  0.305795 -0.033977     48.000000
  0.203863  0.339772 -0.067954     48.000000
  0.237840  0.373749 -0.101932     48.000000
  0.271817  0.407726 -0.135909     48.000000
 -0.407726 -0.271817  0.543635     48.000000
 -0.373749 -0.237840  0.509658     48.000000
  0.135909  0.339772  0.000000     24.000000
  0.169886  0.373749 -0.033977     48.000000
  0.203863  0.407726 -0.067954     48.000000
  0.237840  0.441703 -0.101932     48.000000
 -0.441703 -0.237840  0.577612     48.000000
 -0.407726 -0.203863  0.543635     48.000000
 -0.373749 -0.169886  0.509658     48.000000
 -0.339772 -0.135909  0.475680     48.000000
 -0.305795 -0.101932  0.441703     48.000000
 -0.271817 -0.067954  0.407726     48.000000
 -0.237840 -0.033977  0.373749     48.000000
 -0.203863 -0.000000  0.339772     24.000000
  0.135909  0.407726 -0.000000     24.000000
  0.169886  0.441703 -0.033977     48.000000
  0.203863  0.475680 -0.067954     48.000000
 -0.475680 -0.203863  0.611589     48.000000
 -0.441703 -0.169886  0.577612     48.000000
 -0.407726 -0.135909  0.543635     48.000000
 -0.373749 -0.101932  0.509658     48.000000
 -0.339772 -0.067954  0.475680     48.000000
 -0.305795 -0.033977  0.441703     48.000000
 -0.271817  0.000000  0.407726     24.000000
  0.135909  0.475680 -0.000000     24.000000
  0.169886  0.509658 -0.033977     48.000000
 -0.509658 -0.169886  0.645566     48.000000
 -0.475680 -0.135909  0.611589     48.000000
 -0.441703 -0.101932  0.577612     48.000000
 -0.407726 -0.067954  0.543635     48.000000
 -0.373749 -0.033977  0.509658     48.000000
 -0.339772 -0.000000  0.475680     24.000000
  0.135909  0.543635 -0.000000     24.000000
 -0.543635 -0.135909  0.679544     48.000000
 -0.509658 -0.101932  0.645566     48.000000
 -0.475680 -0.067954  0.611589     48.000000
 -0.441703 -0.033977  0.577612     48.000000
 -0.407726 -0.000000  0.543635     24.000000
 -0.577612 -0.101932  0.713521     24.000000
 -0.543635 -0.067954  0.679544     48.000000
 -0.509658 -0.033977  0.645566     48.000000
 -0.475680 -0.000000  0.611589     24.000000
 -0.577612 -0.033977  0.713521     24.000000
 -0.543635 -0.000000  0.679544     24.000000
  0.203863  0.407726 -0.000000     24.000000
  0.237840  0.441703 -0.033977     48.000000
 -0.441703 -0.237840  0.645566     48.000000
 -0.407726 -0.203863  0.611589     48.000000
 -0.373749 -0.169886  0.577612     48.000000
  0.203863  0.475680 -0.000000     24.000000
 -0.475680 -0.203863  0.679544     48.000000
 -0.441703 -0.169886  0.645566     48.000000
 -0.407726 -0.135909  0.611589     48.000000
 -0.373749 -0.101932  0.577612     48.000000
 -0.339772 -0.067954  0.543635     48.000000
 -0.305795 -0.033977  0.509658     48.000000
 -0.271817 -0.000000  0.475680     24.000000
 -0.509658 -0.169886  0.713521     24.000000
 -0.475680 -0.135909  0.679544     48.000000
 -0.441703 -0.101932  0.645566     48.000000
 -0.407726 -0.067954  0.611589     48.000000
 -0.373749 -0.033977  0.577612     48.000000
 -0.339772  0.000000  0.543635     24.000000
 -0.509658 -0.101932  0.713521     24.000000
 -0.475680 -0.067954  0.679544     48.000000
 -0.441703 -0.033977  0.645566     48.000000
 -0.407726 -0.000000  0.611589     24.000000
 -0.509658 -0.033977  0.713521     24.000000
 -0.475680 -0.000000  0.679544     24.000000
 -0.441703 -0.169886  0.713521     24.000000
 -0.407726 -0.135909  0.679544     48.000000
 -0.373749 -0.101932  0.645566     48.000000
 -0.441703 -0.101932  0.713521     24.000000
 -0.407726 -0.067954  0.679544     48.000000
 -0.373749 -0.033977  0.645566     48.000000
 -0.339772 -0.000000  0.611589     24.000000
 -0.441703 -0.033977  0.713521     24.000000
 -0.407726 -0.000000  0.679544     24.000000
 -0.373749 -0.033977  0.713521     24.000000
 
 TETIRR: Found   1276 inequivalent tetrahedra from    55566


--------------------------------------------------------------------------------------------------------




 Dimension of arrays:
   k-points           NKPTS =    286   k-points in BZ     NKDIM =    286   number of bands    NBANDS=      8
   number of dos      NEDOS =    301   number of ions     NIONS =      2
   non local maximal  LDIM  =      4   non local SUM 2l+1 LMDIM =      8
   total plane-waves  NPLWV =   4096
   max r-space proj   IRMAX =      1   max aug-charges    IRDMAX=   3554
   dimension x,y,z NGX =    16 NGY =   16 NGZ =   16
   dimension x,y,z NGXF=    32 NGYF=   32 NGZF=   32
   support grid    NGXF=    32 NGYF=   32 NGZF=   32
   ions per type =               2
   NGX,Y,Z   is equivalent  to a cutoff of   6.88,  6.88,  6.88 a.u.
   NGXF,Y,Z  is equivalent  to a cutoff of  13.76, 13.76, 13.76 a.u.

 SYSTEM =  fcc Si                                  
 POSCAR =  fcc Si:                                 

 Startparameter for this run:
   NWRITE =      2    write-flag & timer
   PREC   = normal    normal or accurate (medium, high low for compatibility)
   ISTART =      0    job   : 0-new  1-cont  2-samecut
   ICHARG =      2    charge: 1-file 2-atom 10-const
   ISPIN  =      1    spin polarized calculation?
   LNONCOLLINEAR =      F non collinear calculations
   LSORBIT =      F    spin-orbit coupling
   INIWAV =      1    electr: 0-lowe 1-rand  2-diag
   LASPH  =      F    aspherical Exc in radial PAW
   METAGGA=      F    non-selfconsistent MetaGGA calc.

 Electronic Relaxation 1
   ENCUT  =  250.0 eV  18.37 Ry    4.29 a.u.   4.98  4.98  4.98*2*pi/ulx,y,z
   ENINI  =  250.0     initial cutoff
   ENAUG  =  322.1 eV  augmentation charge cutoff
   NELM   =     60;   NELMIN=  2; NELMDL= -5     # of ELM steps 
   EDIFF  = 0.1E-05   stopping-criterion for ELM
   LREAL  =      F    real-space projection
   NLSPLINE    = F    spline interpolate recip. space projectors
   LCOMPAT=      F    compatible to vasp.4.4
   GGA_COMPAT  = T    GGA compatible to vasp.4.4-vasp.4.6
   LMAXPAW     = -100 max onsite density
   LMAXMIX     =    2 max onsite mixed and CHGCAR
   VOSKOWN=      0    Vosko Wilk Nusair interpolation
   ROPT   =    0.00000
 Ionic relaxation
   EDIFFG = 0.1E-04   stopping-criterion for IOM
   NSW    =      0    number of steps for IOM
   NBLOCK =      1;   KBLOCK =      1    inner block; outer block 
   IBRION =     -1    ionic relax: 0-MD 1-quasi-New 2-CG
   NFREE  =      0    steps in history (QN), initial steepest desc. (CG)
   ISIF   =      2    stress and relaxation
   IWAVPR =     10    prediction:  0-non 1-charg 2-wave 3-comb
   ISYM   =      2    0-nonsym 1-usesym 2-fastsym
   LCORR  =      T    Harris-Foulkes like correction to forces

   POTIM  = 0.5000    time-step for ionic-motion
   TEIN   =    0.0    initial temperature
   TEBEG  =    0.0;   TEEND  =   0.0 temperature during run
   SMASS  =  -3.00    Nose mass-parameter (am)
   estimated Nose-frequenzy (Omega)   =  0.10E-29 period in steps =****** mass=  -0.341E-27a.u.
   SCALEE = 1.0000    scale energy and forces
   NPACO  =    256;   APACO  = 16.0  distance and # of slots for P.C.
   PSTRESS=    0.0 pullay stress

  Mass of Ions in am
   POMASS =  28.09
  Ionic Valenz
   ZVAL   =   4.00
  Atomic Wigner-Seitz radii
   RWIGS  =  -1.00
  virtual crystal weights 
   VCA    =   1.00
   NELECT =       8.0000    total number of electrons
   NUPDOWN=      -1.0000    fix difference up-down

 DOS related values:
   EMIN   =  10.00;   EMAX   =-10.00  energy-range for DOS
   EFERMI =   0.00
   ISMEAR =    -5;   SIGMA  =   0.20  broadening in eV -4-tet -1-fermi 0-gaus

 Electronic relaxation 2 (details)
   IALGO  =     38    algorithm
   LDIAG  =      T    sub-space diagonalisation (order eigenvalues)
   LSUBROT=      F    optimize rotation matrix (better conditioning)
   TURBO    =      0    0=normal 1=particle mesh
   IRESTART =      0    0=no restart 2=restart with 2 vectors
   NREBOOT  =      0    no. of reboots
   NMIN     =      0    reboot dimension
   EREF     =   0.00    reference energy to select bands
   IMIX   =      4    mixing-type and parameters
     AMIX     =   0.40;   BMIX     =  1.00
     AMIX_MAG =   1.60;   BMIX_MAG =  1.00
     AMIN     =   0.10
     WC   =   100.;   INIMIX=   1;  MIXPRE=   1;  MAXMIX= -45

 Intra band minimization:
   WEIMIN = 0.0000     energy-eigenvalue tresh-hold
   EBREAK =  0.31E-07  absolut break condition
   DEPER  =   0.30     relativ break condition  

   TIME   =   0.40     timestep for ELM

  volume/ion in A,a.u.               =      20.41       137.75
  Fermi-wavevector in a.u.,A,eV,Ry     =   0.950897  1.796935 12.302457  0.904205
  Thomas-Fermi vector in A             =   2.079317
 
 Write flags
   LWAVE        =      T    write WAVECAR
   LDOWNSAMPLE  =      F    k-point downsampling of WAVECAR
   LCHARG       =      T    write CHGCAR
   LVTOT        =      F    write LOCPOT, total local potential
   LVHAR        =      F    write LOCPOT, Hartree potential only
   LELF         =      F    write electronic localiz. function (ELF)
   LORBIT       =     11    0 simple, 1 ext, 2 COOP (PROOUT), +10 PAW based schemes


 Dipole corrections
   LMONO  =      F    monopole corrections only (constant potential shift)
   LDIPOL =      F    correct potential (dipole corrections)
   IDIPOL =      0    1-x, 2-y, 3-z, 4-all directions 
   EPSILON=  1.0000000 bulk dielectric constant

 Exchange correlation treatment:
   GGA     =    --    GGA type
   LEXCH   =     8    internal setting for exchange type
   VOSKOWN=      0    Vosko Wilk Nusair interpolation
   LHFCALC =     F    Hartree Fock is set to
   LHFONE  =     F    Hartree Fock one center treatment
   AEXX    =    0.0000 exact exchange contribution

 Linear response parameters
   LEPSILON=     F    determine dielectric tensor
   LRPA    =     F    only Hartree local field effects (RPA)
   LNABLA  =     F    use nabla operator in PAW spheres
   LVEL    =     F    velocity operator in full k-point grid
   LINTERFAST=   F  fast interpolation
   KINTER  =     0    interpolate to denser k-point grid
   CSHIFT  =0.1000    complex shift for real part using Kramers Kronig
   OMEGAMAX=  -1.0    maximum frequency
   DEG_THRESHOLD= 0.2000000E-02 threshold for treating states as degnerate
   RTIME   =   -0.100 relaxation time in fs
  (WPLASMAI=    0.000 imaginary part of plasma frequency in eV, 0.658/RTIME)
   DFIELD  = 0.0000000 0.0000000 0.0000000 field for delta impulse in time
 
 Orbital magnetization related:
   ORBITALMAG=     F  switch on orbital magnetization
   LCHIMAG   =     F  perturbation theory with respect to B field
   DQ        =  0.001000  dq finite difference perturbation B field
   LLRAUG    =     F  two centre corrections for induced B field



--------------------------------------------------------------------------------------------------------


 Static calculation
 charge density and potential will be updated during run
 non-spin polarized calculation
 Variant of blocked Davidson
 Davidson routine will perform the subspace rotation
 perform sub-space diagonalisation
    after iterative eigenvector-optimisation
 modified Broyden-mixing scheme, WC =      100.0
 initial mixing is a Kerker type mixing with AMIX =  0.4000 and BMIX =      1.0000
 Hartree-type preconditioning will be used
 using additional bands            4
 reciprocal scheme for non local part
 use partial core corrections
 calculate Harris-corrections to forces 
   (improved forces if not selfconsistent)
 use gradient corrections 
 use of overlap-Matrix (Vanderbilt PP)
 Fermi weights with tetrahedron method with Bloechl corrections


--------------------------------------------------------------------------------------------------------


  energy-cutoff  :      250.00
  volume of cell :       40.82
      direct lattice vectors                 reciprocal lattice vectors
     2.732926957  2.732926957  0.000000000     0.182954030  0.182954030 -0.182954030
     0.000000000  2.732926957  2.732926957    -0.182954030  0.182954030  0.182954030
     2.732926957  0.000000000  2.732926957     0.182954030 -0.182954030  0.182954030

  length of vectors
     3.864942367  3.864942367  3.864942367     0.316885675  0.316885675  0.316885675


 
 k-points in units of 2pi/SCALE and weight: k-points                                
   0.00000000  0.00000000  0.00000000       0.000
   0.03397718  0.03397718 -0.03397718       0.001
   0.06795435  0.06795435 -0.06795435       0.001
   0.10193153  0.10193153 -0.10193153       0.001
   0.13590871  0.13590871 -0.13590871       0.001
   0.16988588  0.16988588 -0.16988588       0.001
   0.20386306  0.20386306 -0.20386306       0.001
   0.23784024  0.23784024 -0.23784024       0.001
   0.27181742  0.27181742 -0.27181742       0.001
   0.30579459  0.30579459 -0.30579459       0.001
   0.33977177  0.33977177 -0.33977177       0.001
  -0.00000000  0.06795435  0.00000000       0.001
   0.03397718  0.10193153 -0.03397718       0.003
   0.06795435  0.13590871 -0.06795435       0.003
   0.10193153  0.16988588 -0.10193153       0.003
   0.13590871  0.20386306 -0.13590871       0.003
   0.16988588  0.23784024 -0.16988588       0.003
   0.20386306  0.27181742 -0.20386306       0.003
   0.23784024  0.30579459 -0.23784024       0.003
   0.27181742  0.33977177 -0.27181742       0.003
   0.30579459  0.37374895 -0.30579459       0.003
  -0.37374895 -0.30579459  0.37374895       0.003
  -0.33977177 -0.27181742  0.33977177       0.003
  -0.30579459 -0.23784024  0.30579459       0.003
  -0.27181742 -0.20386306  0.27181742       0.003
  -0.23784024 -0.16988588  0.23784024       0.003
  -0.20386306 -0.13590871  0.20386306       0.003
  -0.16988588 -0.10193153  0.16988588       0.003
  -0.13590871 -0.06795435  0.13590871       0.003
  -0.10193153 -0.03397718  0.10193153       0.003
  -0.06795435  0.00000000  0.06795435       0.001
  -0.00000000  0.13590871  0.00000000       0.001
   0.03397718  0.16988588 -0.03397718       0.003
   0.06795435  0.20386306 -0.06795435       0.003
   0.10193153  0.23784024 -0.10193153       0.003
   0.13590871  0.27181742 -0.13590871       0.003
   0.16988588  0.30579459 -0.16988588       0.003
   0.20386306  0.33977177 -0.20386306       0.003
   0.23784024  0.37374895 -0.23784024       0.003
   0.27181742  0.40772612 -0.27181742       0.003
  -0.40772612 -0.27181742  0.40772612       0.003
  -0.37374895 -0.23784024  0.37374895       0.003
  -0.33977177 -0.20386306  0.33977177       0.003
  -0.30579459 -0.16988588  0.30579459       0.003
  -0.27181742 -0.13590871  0.27181742       0.003
  -0.23784024 -0.10193153  0.23784024       0.003
  -0.20386306 -0.06795435  0.20386306       0.003
  -0.16988588 -0.03397718  0.16988588       0.003
  -0.13590871  0.00000000  0.13590871       0.001
  -0.00000000  0.20386306  0.00000000       0.001
   0.03397718  0.23784024 -0.03397718       0.003
   0.06795435  0.27181742 -0.06795435       0.003
   0.10193153  0.30579459 -0.10193153       0.003
   0.13590871  0.33977177 -0.13590871       0.003
   0.16988588  0.37374895 -0.16988588       0.003
   0.20386306  0.40772612 -0.20386306       0.003
   0.23784024  0.44170330 -0.23784024       0.003
  -0.44170330 -0.23784024  0.44170330       0.003
  -0.40772612 -0.20386306  0.40772612       0.003
  -0.37374895 -0.16988588  0.37374895       0.003
  -0.33977177 -0.13590871  0.33977177       0.003
  -0.30579459 -0.10193153  0.30579459       0.003
  -0.27181742 -0.06795435  0.27181742       0.003
  -0.23784024 -0.03397718  0.23784024       0.003
  -0.20386306 -0.00000000  0.20386306       0.001
   0.00000000  0.27181742 -0.00000000       0.001
   0.03397718  0.30579459 -0.03397718       0.003
   0.06795435  0.33977177 -0.06795435       0.003
   0.10193153  0.37374895 -0.10193153       0.003
   0.13590871  0.40772612 -0.13590871       0.003
   0.16988588  0.44170330 -0.16988588       0.003
   0.20386306  0.47568048 -0.20386306       0.003
  -0.47568048 -0.20386306  0.47568048       0.003
  -0.44170330 -0.16988588  0.44170330       0.003
  -0.40772612 -0.13590871  0.40772612       0.003
  -0.37374895 -0.10193153  0.37374895       0.003
  -0.33977177 -0.06795435  0.33977177       0.003
  -0.30579459 -0.03397718  0.30579459       0.003
  -0.27181742  0.00000000  0.27181742       0.001
  -0.00000000  0.33977177  0.00000000       0.001
   0.03397718  0.37374895 -0.03397718       0.003
   0.06795435  0.40772612 -0.06795435       0.003
   0.10193153  0.44170330 -0.10193153       0.003
   0.13590871  0.47568048 -0.13590871       0.003
   0.16988588  0.50965765 -0.16988588       0.003
  -0.50965765 -0.16988588  0.50965765       0.003
  -0.47568048 -0.13590871  0.47568048       0.003
  -0.44170330 -0.10193153  0.44170330       0.003
  -0.40772612 -0.06795435  0.40772612       0.003
  -0.37374895 -0.03397718  0.37374895       0.003
  -0.33977177  0.00000000  0.33977177       0.001
  -0.00000000  0.40772612 -0.00000000       0.001
   0.03397718  0.44170330 -0.03397718       0.003
   0.06795435  0.47568048 -0.06795435       0.003
   0.10193153  0.50965765 -0.10193153       0.003
   0.13590871  0.54363483 -0.13590871       0.003
  -0.54363483 -0.13590871  0.54363483       0.003
  -0.50965765 -0.10193153  0.50965765       0.003
  -0.47568048 -0.06795435  0.47568048       0.003
  -0.44170330 -0.03397718  0.44170330       0.003
  -0.40772612  0.00000000  0.40772612       0.001
  -0.00000000  0.47568048  0.00000000       0.001
   0.03397718  0.50965765 -0.03397718       0.003
   0.06795435  0.54363483 -0.06795435       0.003
   0.10193153  0.57761201 -0.10193153       0.003
  -0.57761201 -0.10193153  0.57761201       0.003
  -0.54363483 -0.06795435  0.54363483       0.003
  -0.50965765 -0.03397718  0.50965765       0.003
  -0.47568048  0.00000000  0.47568048       0.001
   0.00000000  0.54363483 -0.00000000       0.001
   0.03397718  0.57761201 -0.03397718       0.003
   0.06795435  0.61158919 -0.06795435       0.003
  -0.61158919 -0.06795435  0.61158919       0.003
  -0.57761201 -0.03397718  0.57761201       0.003
  -0.54363483  0.00000000  0.54363483       0.001
   0.00000000  0.61158919 -0.00000000       0.001
   0.03397718  0.64556636 -0.03397718       0.003
  -0.64556636 -0.03397718  0.64556636       0.003
  -0.61158919 -0.00000000  0.61158919       0.001
  -0.00000000  0.67954354  0.00000000       0.001
  -0.67954354  0.00000000  0.67954354       0.001
   0.06795435  0.13590871 -0.00000000       0.003
   0.10193153  0.16988588 -0.03397718       0.005
   0.13590871  0.20386306 -0.06795435       0.005
   0.16988588  0.23784024 -0.10193153       0.005
   0.20386306  0.27181742 -0.13590871       0.005
   0.23784024  0.30579459 -0.16988588       0.005
   0.27181742  0.33977177 -0.20386306       0.005
   0.30579459  0.37374895 -0.23784024       0.005
  -0.37374895 -0.30579459  0.44170330       0.005
   0.06795435  0.20386306 -0.00000000       0.003
   0.10193153  0.23784024 -0.03397718       0.005
   0.13590871  0.27181742 -0.06795435       0.005
   0.16988588  0.30579459 -0.10193153       0.005
   0.20386306  0.33977177 -0.13590871       0.005
   0.23784024  0.37374895 -0.16988588       0.005
   0.27181742  0.40772612 -0.20386306       0.005
  -0.40772612 -0.27181742  0.47568048       0.005
  -0.37374895 -0.23784024  0.44170330       0.005
  -0.33977177 -0.20386306  0.40772612       0.005
  -0.30579459 -0.16988588  0.37374895       0.005
  -0.27181742 -0.13590871  0.33977177       0.005
  -0.23784024 -0.10193153  0.30579459       0.005
  -0.20386306 -0.06795435  0.27181742       0.005
  -0.16988588 -0.03397718  0.23784024       0.005
  -0.13590871  0.00000000  0.20386306       0.003
   0.06795435  0.27181742 -0.00000000       0.003
   0.10193153  0.30579459 -0.03397718       0.005
   0.13590871  0.33977177 -0.06795435       0.005
   0.16988588  0.37374895 -0.10193153       0.005
   0.20386306  0.40772612 -0.13590871       0.005
   0.23784024  0.44170330 -0.16988588       0.005
  -0.44170330 -0.23784024  0.50965765       0.005
  -0.40772612 -0.20386306  0.47568048       0.005
  -0.37374895 -0.16988588  0.44170330       0.005
  -0.33977177 -0.13590871  0.40772612       0.005
  -0.30579459 -0.10193153  0.37374895       0.005
  -0.27181742 -0.06795435  0.33977177       0.005
  -0.23784024 -0.03397718  0.30579459       0.005
  -0.20386306  0.00000000  0.27181742       0.003
   0.06795435  0.33977177 -0.00000000       0.003
   0.10193153  0.37374895 -0.03397718       0.005
   0.13590871  0.40772612 -0.06795435       0.005
   0.16988588  0.44170330 -0.10193153       0.005
   0.20386306  0.47568048 -0.13590871       0.005
  -0.47568048 -0.20386306  0.54363483       0.005
  -0.44170330 -0.16988588  0.50965765       0.005
  -0.40772612 -0.13590871  0.47568048       0.005
  -0.37374895 -0.10193153  0.44170330       0.005
  -0.33977177 -0.06795435  0.40772612       0.005
  -0.30579459 -0.03397718  0.37374895       0.005
  -0.27181742  0.00000000  0.33977177       0.003
   0.06795435  0.40772612  0.00000000       0.003
   0.10193153  0.44170330 -0.03397718       0.005
   0.13590871  0.47568048 -0.06795435       0.005
   0.16988588  0.50965765 -0.10193153       0.005
  -0.50965765 -0.16988588  0.57761201       0.005
  -0.47568048 -0.13590871  0.54363483       0.005
  -0.44170330 -0.10193153  0.50965765       0.005
  -0.40772612 -0.06795435  0.47568048       0.005
  -0.37374895 -0.03397718  0.44170330       0.005
  -0.33977177  0.00000000  0.40772612       0.003
   0.06795435  0.47568048 -0.00000000       0.003
   0.10193153  0.50965765 -0.03397718       0.005
   0.13590871  0.54363483 -0.06795435       0.005
  -0.54363483 -0.13590871  0.61158919       0.005
  -0.50965765 -0.10193153  0.57761201       0.005
  -0.47568048 -0.06795435  0.54363483       0.005
  -0.44170330 -0.03397718  0.50965765       0.005
  -0.40772612  0.00000000  0.47568048       0.003
   0.06795435  0.54363483  0.00000000       0.003
   0.10193153  0.57761201 -0.03397718       0.005
  -0.57761201 -0.10193153  0.64556636       0.005
  -0.54363483 -0.06795435  0.61158919       0.005
  -0.50965765 -0.03397718  0.57761201       0.005
  -0.47568048 -0.00000000  0.54363483       0.003
   0.06795435  0.61158919 -0.00000000       0.003
  -0.61158919 -0.06795435  0.67954354       0.005
  -0.57761201 -0.03397718  0.64556636       0.005
  -0.54363483 -0.00000000  0.61158919       0.003
  -0.64556636 -0.03397718  0.71352072       0.003
  -0.61158919 -0.00000000  0.67954354       0.003
   0.13590871  0.27181742  0.00000000       0.003
   0.16988588  0.30579459 -0.03397718       0.005
   0.20386306  0.33977177 -0.06795435       0.005
   0.23784024  0.37374895 -0.10193153       0.005
   0.27181742  0.40772612 -0.13590871       0.005
  -0.40772612 -0.27181742  0.54363483       0.005
  -0.37374895 -0.23784024  0.50965765       0.005
   0.13590871  0.33977177  0.00000000       0.003
   0.16988588  0.37374895 -0.03397718       0.005
   0.20386306  0.40772612 -0.06795435       0.005
   0.23784024  0.44170330 -0.10193153       0.005
  -0.44170330 -0.23784024  0.57761201       0.005
  -0.40772612 -0.20386306  0.54363483       0.005
  -0.37374895 -0.16988588  0.50965765       0.005
  -0.33977177 -0.13590871  0.47568048       0.005
  -0.30579459 -0.10193153  0.44170330       0.005
  -0.27181742 -0.06795435  0.40772612       0.005
  -0.23784024 -0.03397718  0.37374895       0.005
  -0.20386306 -0.00000000  0.33977177       0.003
   0.13590871  0.40772612 -0.00000000       0.003
   0.16988588  0.44170330 -0.03397718       0.005
   0.20386306  0.47568048 -0.06795435       0.005
  -0.47568048 -0.20386306  0.61158919       0.005
  -0.44170330 -0.16988588  0.57761201       0.005
  -0.40772612 -0.13590871  0.54363483       0.005
  -0.37374895 -0.10193153  0.50965765       0.005
  -0.33977177 -0.06795435  0.47568048       0.005
  -0.30579459 -0.03397718  0.44170330       0.005
  -0.27181742  0.00000000  0.40772612       0.003
   0.13590871  0.47568048 -0.00000000       0.003
   0.16988588  0.50965765 -0.03397718       0.005
  -0.50965765 -0.16988588  0.64556636       0.005
  -0.47568048 -0.13590871  0.61158919       0.005
  -0.44170330 -0.10193153  0.57761201       0.005
  -0.40772612 -0.06795435  0.54363483       0.005
  -0.37374895 -0.03397718  0.50965765       0.005
  -0.33977177  0.00000000  0.47568048       0.003
   0.13590871  0.54363483 -0.00000000       0.003
  -0.54363483 -0.13590871  0.67954354       0.005
  -0.50965765 -0.10193153  0.64556636       0.005
  -0.47568048 -0.06795435  0.61158919       0.005
  -0.44170330 -0.03397718  0.57761201       0.005
  -0.40772612 -0.00000000  0.54363483       0.003
  -0.57761201 -0.10193153  0.71352072       0.003
  -0.54363483 -0.06795435  0.67954354       0.005
  -0.50965765 -0.03397718  0.64556636       0.005
  -0.47568048 -0.00000000  0.61158919       0.003
  -0.57761201 -0.03397718  0.71352072       0.003
  -0.54363483  0.00000000  0.67954354       0.003
   0.20386306  0.40772612 -0.00000000       0.003
   0.23784024  0.44170330 -0.03397718       0.005
  -0.44170330 -0.23784024  0.64556636       0.005
  -0.40772612 -0.20386306  0.61158919       0.005
  -0.37374895 -0.16988588  0.57761201       0.005
   0.20386306  0.47568048  0.00000000       0.003
  -0.47568048 -0.20386306  0.67954354       0.005
  -0.44170330 -0.16988588  0.64556636       0.005
  -0.40772612 -0.13590871  0.61158919       0.005
  -0.37374895 -0.10193153  0.57761201       0.005
  -0.33977177 -0.06795435  0.54363483       0.005
  -0.30579459 -0.03397718  0.50965765       0.005
  -0.27181742 -0.00000000  0.47568048       0.003
  -0.50965765 -0.16988588  0.71352072       0.003
  -0.47568048 -0.13590871  0.67954354       0.005
  -0.44170330 -0.10193153  0.64556636       0.005
  -0.40772612 -0.06795435  0.61158919       0.005
  -0.37374895 -0.03397718  0.57761201       0.005
  -0.33977177  0.00000000  0.54363483       0.003
  -0.50965765 -0.10193153  0.71352072       0.003
  -0.47568048 -0.06795435  0.67954354       0.005
  -0.44170330 -0.03397718  0.64556636       0.005
  -0.40772612 -0.00000000  0.61158919       0.003
  -0.50965765 -0.03397718  0.71352072       0.003
  -0.47568048 -0.00000000  0.67954354       0.003
  -0.44170330 -0.16988588  0.71352072       0.003
  -0.40772612 -0.13590871  0.67954354       0.005
  -0.37374895 -0.10193153  0.64556636       0.005
  -0.44170330 -0.10193153  0.71352072       0.003
  -0.40772612 -0.06795435  0.67954354       0.005
  -0.37374895 -0.03397718  0.64556636       0.005
  -0.33977177 -0.00000000  0.61158919       0.003
  -0.44170330 -0.03397718  0.71352072       0.003
  -0.40772612 -0.00000000  0.67954354       0.003
  -0.37374895 -0.03397718  0.71352072       0.003
 
 k-points in reciprocal lattice and weights: k-points                                
   0.00000000  0.00000000  0.00000000       0.000
   0.04761905 -0.00000000 -0.00000000       0.001
   0.09523810 -0.00000000 -0.00000000       0.001
   0.14285714 -0.00000000 -0.00000000       0.001
   0.19047619  0.00000000  0.00000000       0.001
   0.23809524  0.00000000  0.00000000       0.001
   0.28571429 -0.00000000 -0.00000000       0.001
   0.33333333  0.00000000  0.00000000       0.001
   0.38095238  0.00000000  0.00000000       0.001
   0.42857143 -0.00000000 -0.00000000       0.001
   0.47619048  0.00000000  0.00000000       0.001
   0.04761905  0.04761905 -0.00000000       0.001
   0.09523810  0.04761905 -0.00000000       0.003
   0.14285714  0.04761905 -0.00000000       0.003
   0.19047619  0.04761905 -0.00000000       0.003
   0.23809524  0.04761905  0.00000000       0.003
   0.28571429  0.04761905  0.00000000       0.003
   0.33333333  0.04761905 -0.00000000       0.003
   0.38095238  0.04761905  0.00000000       0.003
   0.42857143  0.04761905  0.00000000       0.003
   0.47619048  0.04761905  0.00000000       0.003
  -0.47619048  0.04761905 -0.00000000       0.003
  -0.42857143  0.04761905  0.00000000       0.003
  -0.38095238  0.04761905  0.00000000       0.003
  -0.33333333  0.04761905  0.00000000       0.003
  -0.28571429  0.04761905  0.00000000       0.003
  -0.23809524  0.04761905 -0.00000000       0.003
  -0.19047619  0.04761905 -0.00000000       0.003
  -0.14285714  0.04761905 -0.00000000       0.003
  -0.09523810  0.04761905 -0.00000000       0.003
  -0.04761905  0.04761905  0.00000000       0.001
   0.09523810  0.09523810 -0.00000000       0.001
   0.14285714  0.09523810 -0.00000000       0.003
   0.19047619  0.09523810 -0.00000000       0.003
   0.23809524  0.09523810 -0.00000000       0.003
   0.28571429  0.09523810  0.00000000       0.003
   0.33333333  0.09523810 -0.00000000       0.003
   0.38095238  0.09523810 -0.00000000       0.003
   0.42857143  0.09523810 -0.00000000       0.003
   0.47619048  0.09523810  0.00000000       0.003
  -0.47619048  0.09523810 -0.00000000       0.003
  -0.42857143  0.09523810 -0.00000000       0.003
  -0.38095238  0.09523810 -0.00000000       0.003
  -0.33333333  0.09523810  0.00000000       0.003
  -0.28571429  0.09523810  0.00000000       0.003
  -0.23809524  0.09523810  0.00000000       0.003
  -0.19047619  0.09523810  0.00000000       0.003
  -0.14285714  0.09523810 -0.00000000       0.003
  -0.09523810  0.09523810  0.00000000       0.001
   0.14285714  0.14285714 -0.00000000       0.001
   0.19047619  0.14285714 -0.00000000       0.003
   0.23809524  0.14285714 -0.00000000       0.003
   0.28571429  0.14285714 -0.00000000       0.003
   0.33333333  0.14285714 -0.00000000       0.003
   0.38095238  0.14285714 -0.00000000       0.003
   0.42857143  0.14285714  0.00000000       0.003
   0.47619048  0.14285714  0.00000000       0.003
  -0.47619048  0.14285714  0.00000000       0.003
  -0.42857143  0.14285714 -0.00000000       0.003
  -0.38095238  0.14285714  0.00000000       0.003
  -0.33333333  0.14285714 -0.00000000       0.003
  -0.28571429  0.14285714  0.00000000       0.003
  -0.23809524  0.14285714 -0.00000000       0.003
  -0.19047619  0.14285714 -0.00000000       0.003
  -0.14285714  0.14285714  0.00000000       0.001
   0.19047619  0.19047619 -0.00000000       0.001
   0.23809524  0.19047619 -0.00000000       0.003
   0.28571429  0.19047619 -0.00000000       0.003
   0.33333333  0.19047619 -0.00000000       0.003
   0.38095238  0.19047619 -0.00000000       0.003
   0.42857143  0.19047619  0.00000000       0.003
   0.47619048  0.19047619 -0.00000000       0.003
  -0.47619048  0.19047619  0.00000000       0.003
  -0.42857143  0.19047619 -0.00000000       0.003
  -0.38095238  0.19047619 -0.00000000       0.003
  -0.33333333  0.19047619 -0.00000000       0.003
  -0.28571429  0.19047619 -0.00000000       0.003
  -0.23809524  0.19047619  0.00000000       0.003
  -0.19047619  0.19047619 -0.00000000       0.001
   0.23809524  0.23809524 -0.00000000       0.001
   0.28571429  0.23809524 -0.00000000       0.003
   0.33333333  0.23809524 -0.00000000       0.003
   0.38095238  0.23809524 -0.00000000       0.003
   0.42857143  0.23809524  0.00000000       0.003
   0.47619048  0.23809524 -0.00000000       0.003
  -0.47619048  0.23809524  0.00000000       0.003
  -0.42857143  0.23809524  0.00000000       0.003
  -0.38095238  0.23809524 -0.00000000       0.003
  -0.33333333  0.23809524 -0.00000000       0.003
  -0.28571429  0.23809524  0.00000000       0.003
  -0.23809524  0.23809524 -0.00000000       0.001
   0.28571429  0.28571429 -0.00000000       0.001
   0.33333333  0.28571429 -0.00000000       0.003
   0.38095238  0.28571429 -0.00000000       0.003
   0.42857143  0.28571429 -0.00000000       0.003
   0.47619048  0.28571429 -0.00000000       0.003
  -0.47619048  0.28571429 -0.00000000       0.003
  -0.42857143  0.28571429  0.00000000       0.003
  -0.38095238  0.28571429  0.00000000       0.003
  -0.33333333  0.28571429  0.00000000       0.003
  -0.28571429  0.28571429  0.00000000       0.001
   0.33333333  0.33333333 -0.00000000       0.001
   0.38095238  0.33333333 -0.00000000       0.003
   0.42857143  0.33333333 -0.00000000       0.003
   0.47619048  0.33333333 -0.00000000       0.003
  -0.47619048  0.33333333  0.00000000       0.003
  -0.42857143  0.33333333 -0.00000000       0.003
  -0.38095238  0.33333333  0.00000000       0.003
  -0.33333333  0.33333333 -0.00000000       0.001
   0.38095238  0.38095238 -0.00000000       0.001
   0.42857143  0.38095238 -0.00000000       0.003
   0.47619048  0.38095238 -0.00000000       0.003
  -0.47619048  0.38095238  0.00000000       0.003
  -0.42857143  0.38095238  0.00000000       0.003
  -0.38095238  0.38095238 -0.00000000       0.001
   0.42857143  0.42857143 -0.00000000       0.001
   0.47619048  0.42857143 -0.00000000       0.003
  -0.47619048  0.42857143  0.00000000       0.003
  -0.42857143  0.42857143  0.00000000       0.001
   0.47619048  0.47619048 -0.00000000       0.001
  -0.47619048  0.47619048 -0.00000000       0.001
   0.14285714  0.09523810  0.04761905       0.003
   0.19047619  0.09523810  0.04761905       0.005
   0.23809524  0.09523810  0.04761905       0.005
   0.28571429  0.09523810  0.04761905       0.005
   0.33333333  0.09523810  0.04761905       0.005
   0.38095238  0.09523810  0.04761905       0.005
   0.42857143  0.09523810  0.04761905       0.005
   0.47619048  0.09523810  0.04761905       0.005
  -0.47619048  0.09523810  0.04761905       0.005
   0.19047619  0.14285714  0.04761905       0.003
   0.23809524  0.14285714  0.04761905       0.005
   0.28571429  0.14285714  0.04761905       0.005
   0.33333333  0.14285714  0.04761905       0.005
   0.38095238  0.14285714  0.04761905       0.005
   0.42857143  0.14285714  0.04761905       0.005
   0.47619048  0.14285714  0.04761905       0.005
  -0.47619048  0.14285714  0.04761905       0.005
  -0.42857143  0.14285714  0.04761905       0.005
  -0.38095238  0.14285714  0.04761905       0.005
  -0.33333333  0.14285714  0.04761905       0.005
  -0.28571429  0.14285714  0.04761905       0.005
  -0.23809524  0.14285714  0.04761905       0.005
  -0.19047619  0.14285714  0.04761905       0.005
  -0.14285714  0.14285714  0.04761905       0.005
  -0.09523810  0.14285714  0.04761905       0.003
   0.23809524  0.19047619  0.04761905       0.003
   0.28571429  0.19047619  0.04761905       0.005
   0.33333333  0.19047619  0.04761905       0.005
   0.38095238  0.19047619  0.04761905       0.005
   0.42857143  0.19047619  0.04761905       0.005
   0.47619048  0.19047619  0.04761905       0.005
  -0.47619048  0.19047619  0.04761905       0.005
  -0.42857143  0.19047619  0.04761905       0.005
  -0.38095238  0.19047619  0.04761905       0.005
  -0.33333333  0.19047619  0.04761905       0.005
  -0.28571429  0.19047619  0.04761905       0.005
  -0.23809524  0.19047619  0.04761905       0.005
  -0.19047619  0.19047619  0.04761905       0.005
  -0.14285714  0.19047619  0.04761905       0.003
   0.28571429  0.23809524  0.04761905       0.003
   0.33333333  0.23809524  0.04761905       0.005
   0.38095238  0.23809524  0.04761905       0.005
   0.42857143  0.23809524  0.04761905       0.005
   0.47619048  0.23809524  0.04761905       0.005
  -0.47619048  0.23809524  0.04761905       0.005
  -0.42857143  0.23809524  0.04761905       0.005
  -0.38095238  0.23809524  0.04761905       0.005
  -0.33333333  0.23809524  0.04761905       0.005
  -0.28571429  0.23809524  0.04761905       0.005
  -0.23809524  0.23809524  0.04761905       0.005
  -0.19047619  0.23809524  0.04761905       0.003
   0.33333333  0.28571429  0.04761905       0.003
   0.38095238  0.28571429  0.04761905       0.005
   0.42857143  0.28571429  0.04761905       0.005
   0.47619048  0.28571429  0.04761905       0.005
  -0.47619048  0.28571429  0.04761905       0.005
  -0.42857143  0.28571429  0.04761905       0.005
  -0.38095238  0.28571429  0.04761905       0.005
  -0.33333333  0.28571429  0.04761905       0.005
  -0.28571429  0.28571429  0.04761905       0.005
  -0.23809524  0.28571429  0.04761905       0.003
   0.38095238  0.33333333  0.04761905       0.003
   0.42857143  0.33333333  0.04761905       0.005
   0.47619048  0.33333333  0.04761905       0.005
  -0.47619048  0.33333333  0.04761905       0.005
  -0.42857143  0.33333333  0.04761905       0.005
  -0.38095238  0.33333333  0.04761905       0.005
  -0.33333333  0.33333333  0.04761905       0.005
  -0.28571429  0.33333333  0.04761905       0.003
   0.42857143  0.38095238  0.04761905       0.003
   0.47619048  0.38095238  0.04761905       0.005
  -0.47619048  0.38095238  0.04761905       0.005
  -0.42857143  0.38095238  0.04761905       0.005
  -0.38095238  0.38095238  0.04761905       0.005
  -0.33333333  0.38095238  0.04761905       0.003
   0.47619048  0.42857143  0.04761905       0.003
  -0.47619048  0.42857143  0.04761905       0.005
  -0.42857143  0.42857143  0.04761905       0.005
  -0.38095238  0.42857143  0.04761905       0.003
  -0.47619048  0.47619048  0.04761905       0.003
  -0.42857143  0.47619048  0.04761905       0.003
   0.28571429  0.19047619  0.09523810       0.003
   0.33333333  0.19047619  0.09523810       0.005
   0.38095238  0.19047619  0.09523810       0.005
   0.42857143  0.19047619  0.09523810       0.005
   0.47619048  0.19047619  0.09523810       0.005
  -0.47619048  0.19047619  0.09523810       0.005
  -0.42857143  0.19047619  0.09523810       0.005
   0.33333333  0.23809524  0.09523810       0.003
   0.38095238  0.23809524  0.09523810       0.005
   0.42857143  0.23809524  0.09523810       0.005
   0.47619048  0.23809524  0.09523810       0.005
  -0.47619048  0.23809524  0.09523810       0.005
  -0.42857143  0.23809524  0.09523810       0.005
  -0.38095238  0.23809524  0.09523810       0.005
  -0.33333333  0.23809524  0.09523810       0.005
  -0.28571429  0.23809524  0.09523810       0.005
  -0.23809524  0.23809524  0.09523810       0.005
  -0.19047619  0.23809524  0.09523810       0.005
  -0.14285714  0.23809524  0.09523810       0.003
   0.38095238  0.28571429  0.09523810       0.003
   0.42857143  0.28571429  0.09523810       0.005
   0.47619048  0.28571429  0.09523810       0.005
  -0.47619048  0.28571429  0.09523810       0.005
  -0.42857143  0.28571429  0.09523810       0.005
  -0.38095238  0.28571429  0.09523810       0.005
  -0.33333333  0.28571429  0.09523810       0.005
  -0.28571429  0.28571429  0.09523810       0.005
  -0.23809524  0.28571429  0.09523810       0.005
  -0.19047619  0.28571429  0.09523810       0.003
   0.42857143  0.33333333  0.09523810       0.003
   0.47619048  0.33333333  0.09523810       0.005
  -0.47619048  0.33333333  0.09523810       0.005
  -0.42857143  0.33333333  0.09523810       0.005
  -0.38095238  0.33333333  0.09523810       0.005
  -0.33333333  0.33333333  0.09523810       0.005
  -0.28571429  0.33333333  0.09523810       0.005
  -0.23809524  0.33333333  0.09523810       0.003
   0.47619048  0.38095238  0.09523810       0.003
  -0.47619048  0.38095238  0.09523810       0.005
  -0.42857143  0.38095238  0.09523810       0.005
  -0.38095238  0.38095238  0.09523810       0.005
  -0.33333333  0.38095238  0.09523810       0.005
  -0.28571429  0.38095238  0.09523810       0.003
  -0.47619048  0.42857143  0.09523810       0.003
  -0.42857143  0.42857143  0.09523810       0.005
  -0.38095238  0.42857143  0.09523810       0.005
  -0.33333333  0.42857143  0.09523810       0.003
  -0.42857143  0.47619048  0.09523810       0.003
  -0.38095238  0.47619048  0.09523810       0.003
   0.42857143  0.28571429  0.14285714       0.003
   0.47619048  0.28571429  0.14285714       0.005
  -0.47619048  0.28571429  0.14285714       0.005
  -0.42857143  0.28571429  0.14285714       0.005
  -0.38095238  0.28571429  0.14285714       0.005
   0.47619048  0.33333333  0.14285714       0.003
  -0.47619048  0.33333333  0.14285714       0.005
  -0.42857143  0.33333333  0.14285714       0.005
  -0.38095238  0.33333333  0.14285714       0.005
  -0.33333333  0.33333333  0.14285714       0.005
  -0.28571429  0.33333333  0.14285714       0.005
  -0.23809524  0.33333333  0.14285714       0.005
  -0.19047619  0.33333333  0.14285714       0.003
  -0.47619048  0.38095238  0.14285714       0.003
  -0.42857143  0.38095238  0.14285714       0.005
  -0.38095238  0.38095238  0.14285714       0.005
  -0.33333333  0.38095238  0.14285714       0.005
  -0.28571429  0.38095238  0.14285714       0.005
  -0.23809524  0.38095238  0.14285714       0.003
  -0.42857143  0.42857143  0.14285714       0.003
  -0.38095238  0.42857143  0.14285714       0.005
  -0.33333333  0.42857143  0.14285714       0.005
  -0.28571429  0.42857143  0.14285714       0.003
  -0.38095238  0.47619048  0.14285714       0.003
  -0.33333333  0.47619048  0.14285714       0.003
  -0.42857143  0.38095238  0.19047619       0.003
  -0.38095238  0.38095238  0.19047619       0.005
  -0.33333333  0.38095238  0.19047619       0.005
  -0.38095238  0.42857143  0.19047619       0.003
  -0.33333333  0.42857143  0.19047619       0.005
  -0.28571429  0.42857143  0.19047619       0.005
  -0.23809524  0.42857143  0.19047619       0.003
  -0.33333333  0.47619048  0.19047619       0.003
  -0.28571429  0.47619048  0.19047619       0.003
  -0.28571429  0.47619048  0.23809524       0.003
 
 position of ions in fractional coordinates (direct lattice) 
   0.00000000  0.00000000  0.00000000
   0.25000000  0.25000000  0.25000000
 
 position of ions in cartesian coordinates  (Angst):
   0.00000000  0.00000000  0.00000000
   1.36646348  1.36646348  1.36646348
 


--------------------------------------------------------------------------------------------------------


 k-point  1 :   0.0000 0.0000 0.0000  plane waves:     339
 k-point  2 :   0.0476-0.0000-0.0000  plane waves:     339
 k-point  3 :   0.0952-0.0000-0.0000  plane waves:     347
 k-point  4 :   0.1429-0.0000-0.0000  plane waves:     362
 k-point  5 :   0.1905 0.0000 0.0000  plane waves:     362
 k-point  6 :   0.2381 0.0000 0.0000  plane waves:     359
 k-point  7 :   0.2857-0.0000-0.0000  plane waves:     362
 k-point  8 :   0.3333 0.0000 0.0000  plane waves:     359
 k-point  9 :   0.3810 0.0000 0.0000  plane waves:     362
 k-point 10 :   0.4286-0.0000-0.0000  plane waves:     356
 k-point 11 :   0.4762 0.0000 0.0000  plane waves:     368
 k-point 12 :   0.0476 0.0476-0.0000  plane waves:     339
 k-point 13 :   0.0952 0.0476-0.0000  plane waves:     346
 k-point 14 :   0.1429 0.0476-0.0000  plane waves:     356
 k-point 15 :   0.1905 0.0476-0.0000  plane waves:     358
 k-point 16 :   0.2381 0.0476 0.0000  plane waves:     360
 k-point 17 :   0.2857 0.0476 0.0000  plane waves:     361
 k-point 18 :   0.3333 0.0476-0.0000  plane waves:     359
 k-point 19 :   0.3810 0.0476 0.0000  plane waves:     359
 k-point 20 :   0.4286 0.0476 0.0000  plane waves:     362
 k-point 21 :   0.4762 0.0476 0.0000  plane waves:     366
 k-point 22 :  -0.4762 0.0476-0.0000  plane waves:     368
 k-point 23 :  -0.4286 0.0476 0.0000  plane waves:     362
 k-point 24 :  -0.3810 0.0476 0.0000  plane waves:     362
 k-point 25 :  -0.3333 0.0476 0.0000  plane waves:     359
 k-point 26 :  -0.2857 0.0476 0.0000  plane waves:     359
 k-point 27 :  -0.2381 0.0476-0.0000  plane waves:     358
 k-point 28 :  -0.1905 0.0476-0.0000  plane waves:     360
 k-point 29 :  -0.1429 0.0476-0.0000  plane waves:     358
 k-point 30 :  -0.0952 0.0476-0.0000  plane waves:     353
 k-point 31 :  -0.0476 0.0476 0.0000  plane waves:     345
 k-point 32 :   0.0952 0.0952-0.0000  plane waves:     351
 k-point 33 :   0.1429 0.0952-0.0000  plane waves:     355
 k-point 34 :   0.1905 0.0952-0.0000  plane waves:     359
 k-point 35 :   0.2381 0.0952-0.0000  plane waves:     364
 k-point 36 :   0.2857 0.0952 0.0000  plane waves:     363
 k-point 37 :   0.3333 0.0952-0.0000  plane waves:     362
 k-point 38 :   0.3810 0.0952-0.0000  plane waves:     364
 k-point 39 :   0.4286 0.0952-0.0000  plane waves:     370
 k-point 40 :   0.4762 0.0952 0.0000  plane waves:     368
 k-point 41 :  -0.4762 0.0952-0.0000  plane waves:     368
 k-point 42 :  -0.4286 0.0952-0.0000  plane waves:     366
 k-point 43 :  -0.3810 0.0952-0.0000  plane waves:     368
 k-point 44 :  -0.3333 0.0952 0.0000  plane waves:     363
 k-point 45 :  -0.2857 0.0952 0.0000  plane waves:     362
 k-point 46 :  -0.2381 0.0952 0.0000  plane waves:     364
 k-point 47 :  -0.1905 0.0952 0.0000  plane waves:     362
 k-point 48 :  -0.1429 0.0952-0.0000  plane waves:     362
 k-point 49 :  -0.0952 0.0952 0.0000  plane waves:     357
 k-point 50 :   0.1429 0.1429-0.0000  plane waves:     351
 k-point 51 :   0.1905 0.1429-0.0000  plane waves:     354
 k-point 52 :   0.2381 0.1429-0.0000  plane waves:     358
 k-point 53 :   0.2857 0.1429-0.0000  plane waves:     363
 k-point 54 :   0.3333 0.1429-0.0000  plane waves:     364
 k-point 55 :   0.3810 0.1429-0.0000  plane waves:     366
 k-point 56 :   0.4286 0.1429 0.0000  plane waves:     372
 k-point 57 :   0.4762 0.1429 0.0000  plane waves:     371
 k-point 58 :  -0.4762 0.1429 0.0000  plane waves:     370
 k-point 59 :  -0.4286 0.1429-0.0000  plane waves:     365
 k-point 60 :  -0.3810 0.1429 0.0000  plane waves:     365
 k-point 61 :  -0.3333 0.1429-0.0000  plane waves:     365
 k-point 62 :  -0.2857 0.1429 0.0000  plane waves:     367
 k-point 63 :  -0.2381 0.1429-0.0000  plane waves:     364
 k-point 64 :  -0.1905 0.1429-0.0000  plane waves:     364
 k-point 65 :  -0.1429 0.1429 0.0000  plane waves:     361
 k-point 66 :   0.1905 0.1905-0.0000  plane waves:     355
 k-point 67 :   0.2381 0.1905-0.0000  plane waves:     357
 k-point 68 :   0.2857 0.1905-0.0000  plane waves:     359
 k-point 69 :   0.3333 0.1905-0.0000  plane waves:     361
 k-point 70 :   0.3810 0.1905-0.0000  plane waves:     360
 k-point 71 :   0.4286 0.1905 0.0000  plane waves:     367
 k-point 72 :   0.4762 0.1905-0.0000  plane waves:     369
 k-point 73 :  -0.4762 0.1905 0.0000  plane waves:     370
 k-point 74 :  -0.4286 0.1905-0.0000  plane waves:     370
 k-point 75 :  -0.3810 0.1905-0.0000  plane waves:     370
[...]
      8      11.7400      0.00000

 k-point   253 :       0.4762    0.2857    0.1429
  band No.  band energies     occupation 
      1      -4.1737      2.00000
      2       0.2512      2.00000
      3       2.2920      2.00000
      4       3.6780      2.00000
      5       8.4916      0.00000
      6       9.5401      0.00000
      7       9.7425      0.00000
      8      12.0417      0.00000

 k-point   254 :      -0.4762    0.2857    0.1429
  band No.  band energies     occupation 
      1      -3.8199      2.00000
      2      -0.2752      2.00000
      3       2.1133      2.00000
      4       3.4938      2.00000
      5       8.6242      0.00000
      6       9.3184      0.00000
      7      10.3188      0.00000
      8      12.1640      0.00000

 k-point   255 :      -0.4286    0.2857    0.1429
  band No.  band energies     occupation 
      1      -3.4850      2.00000
      2      -0.7432      2.00000
      3       2.0132      2.00000
      4       3.3566      2.00000
      5       8.7107      0.00000
      6       9.1162      0.00000
      7      11.0820      0.00000
      8      12.1947      0.00000

 k-point   256 :      -0.3810    0.2857    0.1429
  band No.  band energies     occupation 
      1      -3.2560      2.00000
      2      -1.0435      2.00000
      3       1.9687      2.00000
      4       3.2834      2.00000
      5       8.8104      0.00000
      6       8.9457      0.00000
      7      11.9341      0.00000
      8      12.2032      0.00000

 k-point   257 :       0.4762    0.3333    0.1429
  band No.  band energies     occupation 
      1      -4.0424      2.00000
      2       0.1702      2.00000
      3       2.3382      2.00000
      4       3.3394      2.00000
      5       8.0373      0.00000
      6       8.9727      0.00000
      7      10.3402      0.00000
      8      12.6977      0.00000

 k-point   258 :      -0.4762    0.3333    0.1429
  band No.  band energies     occupation 
      1      -3.6932      2.00000
      2      -0.2824      2.00000
      3       2.0730      2.00000
      4       3.1433      2.00000
      5       8.3065      0.00000
      6       9.3127      0.00000
      7      10.1401      0.00000
      8      13.0099      0.00000

 k-point   259 :      -0.4286    0.3333    0.1429
  band No.  band energies     occupation 
      1      -3.3440      2.00000
      2      -0.7207      2.00000
      3       1.8815      2.00000
      4       3.0046      2.00000
      5       8.4305      0.00000
      6       9.7770      0.00000
      7      10.1428      0.00000
      8      13.1202      0.00000

 k-point   260 :      -0.3810    0.3333    0.1429
  band No.  band energies     occupation 
      1      -3.0634      2.00000
      2      -1.0570      2.00000
      3       1.7507      2.00000
      4       2.9448      2.00000
      5       8.5361      0.00000
      6       9.6840      0.00000
      7      10.8852      0.00000
      8      12.9737      0.00000

 k-point   261 :      -0.3333    0.3333    0.1429
  band No.  band energies     occupation 
      1      -2.9832      2.00000
      2      -1.1488      2.00000
      3       1.6772      2.00000
      4       2.9685      2.00000
      5       8.6712      0.00000
      6       9.5396      0.00000
      7      11.7106      0.00000
      8      12.1182      0.00000

 k-point   262 :      -0.2857    0.3333    0.1429
  band No.  band energies     occupation 
      1      -3.1627      2.00000
      2      -0.9370      2.00000
      3       1.6705      2.00000
      4       3.0694      2.00000
      5       8.8448      0.00000
      6       9.4128      0.00000
      7      11.0862      0.00000
      8      12.8324      0.00000

 k-point   263 :      -0.2381    0.3333    0.1429
  band No.  band energies     occupation 
      1      -3.4823      2.00000
      2      -0.5541      2.00000
      3       1.7519      2.00000
      4       3.2351      2.00000
      5       9.0551      0.00000
      6       9.2716      0.00000
      7      10.3302      0.00000
      8      12.9279      0.00000

 k-point   264 :      -0.1905    0.3333    0.1429
  band No.  band energies     occupation 
      1      -3.8350      2.00000
      2      -0.1335      2.00000
      3       1.9510      2.00000
      4       3.4470      2.00000
      5       8.9756      0.00000
      6       9.2937      0.00000
      7       9.8582      0.00000
      8      12.5977      0.00000

 k-point   265 :      -0.4762    0.3810    0.1429
  band No.  band energies     occupation 
      1      -3.5205      2.00000
      2      -0.4410      2.00000
      3       2.1777      2.00000
      4       2.8731      2.00000
      5       7.9147      0.00000
      6       8.5547      0.00000
      7      11.0115      0.00000
      8      13.6634      0.00000

 k-point   266 :      -0.4286    0.3810    0.1429
  band No.  band energies     occupation 
      1      -3.1657      2.00000
      2      -0.8341      2.00000
      3       1.9340      2.00000
      4       2.7048      2.00000
      5       8.1726      0.00000
      6       9.0142      0.00000
      7      10.8080      0.00000
      8      13.9303      0.00000

 k-point   267 :      -0.3810    0.3810    0.1429
  band No.  band energies     occupation 
      1      -2.8476      2.00000
      2      -1.1734      2.00000
      3       1.7163      2.00000
      4       2.6462      2.00000
      5       8.2928      0.00000
      6       9.7523      0.00000
      7      10.6453      0.00000
      8      13.0846      0.00000

 k-point   268 :      -0.3333    0.3810    0.1429
  band No.  band energies     occupation 
      1      -2.6949      2.00000
      2      -1.3288      2.00000
      3       1.5570      2.00000
      4       2.6878      2.00000
      5       8.4262      0.00000
      6      10.2697      0.00000
      7      10.8438      0.00000
      8      12.1097      0.00000

 k-point   269 :      -0.2857    0.3810    0.1429
  band No.  band energies     occupation 
      1      -2.8289      2.00000
      2      -1.1859      2.00000
      3       1.4891      2.00000
      4       2.8108      2.00000
      5       8.5992      0.00000
      6      10.1876      0.00000
      7      11.1348      0.00000
      8      11.8115      0.00000

 k-point   270 :      -0.2381    0.3810    0.1429
  band No.  band energies     occupation 
      1      -3.1347      2.00000
      2      -0.8770      2.00000
      3       1.5450      2.00000
      4       2.9992      2.00000
      5       8.8122      0.00000
      6       9.8936      0.00000
      7      10.5200      0.00000
      8      12.7974      0.00000

 k-point   271 :      -0.4286    0.4286    0.1429
  band No.  band energies     occupation 
      1      -2.9499      2.00000
      2      -1.0711      2.00000
      3       2.1075      2.00000
      4       2.5127      2.00000
      5       7.8665      0.00000
      6       8.2392      0.00000
      7      11.7455      0.00000
      8      14.2183      0.00000

 k-point   272 :      -0.3810    0.4286    0.1429
  band No.  band energies     occupation 
      1      -2.6065      2.00000
      2      -1.4038      2.00000
      3       1.8717      2.00000
      4       2.4078      2.00000
      5       8.0932      0.00000
      6       8.8321      0.00000
      7      11.5482      0.00000
      8      13.2210      0.00000

 k-point   273 :      -0.3333    0.4286    0.1429
  band No.  band energies     occupation 
      1      -2.3969      2.00000
      2      -1.5951      2.00000
      3       1.6280      2.00000
      4       2.4602      2.00000
      5       8.2223      0.00000
      6       9.6705      0.00000
      7      11.3741      0.00000
      8      12.2157      0.00000

 k-point   274 :      -0.2857    0.4286    0.1429
  band No.  band energies     occupation 
      1      -2.5240      2.00000
      2      -1.4609      2.00000
      3       1.4830      2.00000
      4       2.6024      2.00000
      5       8.3886      0.00000
      6      10.4892      0.00000
      7      11.2287      0.00000
      8      11.3901      0.00000

 k-point   275 :      -0.3810    0.4762    0.1429
  band No.  band energies     occupation 
      1      -2.3417      2.00000
      2      -1.7098      2.00000
      3       2.1348      2.00000
      4       2.2675      2.00000
      5       7.9011      0.00000
      6       8.0234      0.00000
      7      12.5420      0.00000
      8      13.3868      0.00000

 k-point   276 :      -0.3333    0.4762    0.1429
  band No.  band energies     occupation 
      1      -2.1330      2.00000
      2      -1.8805      2.00000
      3       1.8600      2.00000
      4       2.2976      2.00000
      5       8.0666      0.00000
      6       8.7704      0.00000
      7      12.3013      0.00000
      8      12.4103      0.00000

 k-point   277 :      -0.4286    0.3810    0.1905
  band No.  band energies     occupation 
      1      -3.3432      2.00000
      2      -0.6410      2.00000
      3       1.8208      2.00000
      4       2.8964      2.00000
      5       8.8608      0.00000
      6       9.3917      0.00000
      7       9.9574      0.00000
      8      13.6226      0.00000

 k-point   278 :      -0.3810    0.3810    0.1905
  band No.  band energies     occupation 
      1      -3.0016      2.00000
      2      -0.9999      2.00000
      3       1.6669      2.00000
      4       2.7076      2.00000
      5       9.1228      0.00000
      6       9.5778      0.00000
      7      10.1396      0.00000
      8      12.9262      0.00000

 k-point   279 :      -0.3333    0.3810    0.1905
  band No.  band energies     occupation 
      1      -2.7529      2.00000
      2      -1.2617      2.00000
      3       1.5971      2.00000
      4       2.6061      2.00000
      5       9.2139      0.00000
      6       9.4973      0.00000
      7      10.9070      0.00000
      8      11.9356      0.00000

 k-point   280 :      -0.3810    0.4286    0.1905
  band No.  band energies     occupation 
      1      -2.8147      2.00000
      2      -1.1655      2.00000
      3       1.7938      2.00000
      4       2.4349      2.00000
      5       8.8126      0.00000
      6       9.1340      0.00000
      7      10.6031      0.00000
      8      13.0539      0.00000

 k-point   281 :      -0.3333    0.4286    0.1905
  band No.  band energies     occupation 
      1      -2.5111      2.00000
      2      -1.4536      2.00000
      3       1.6804      2.00000
      4       2.2977      2.00000
      5       9.0464      0.00000
      6       9.7670      0.00000
      7      10.4694      0.00000
      8      12.0275      0.00000

 k-point   282 :      -0.2857    0.4286    0.1905
  band No.  band energies     occupation 
      1      -2.4352      2.00000
      2      -1.5225      2.00000
      3       1.5928      2.00000
      4       2.3191      2.00000
      5       9.1873      0.00000
      6      10.0865      0.00000
      7      10.7942      0.00000
      8      11.1708      0.00000

 k-point   283 :      -0.2381    0.4286    0.1905
  band No.  band energies     occupation 
      1      -2.6668      2.00000
      2      -1.2997      2.00000
      3       1.5752      2.00000
      4       2.4681      2.00000
      5       9.3531      0.00000
      6       9.8394      0.00000
      7      10.3128      0.00000
      8      11.8879      0.00000

 k-point   284 :      -0.3333    0.4762    0.1905
  band No.  band energies     occupation 
      1      -2.2644      2.00000
      2      -1.7095      2.00000
      3       1.8814      2.00000
      4       2.0936      2.00000
      5       8.8388      0.00000
      6       8.9445      0.00000
      7      11.3501      0.00000
      8      12.1712      0.00000

 k-point   285 :      -0.2857    0.4762    0.1905
  band No.  band energies     occupation 
      1      -2.1513      2.00000
      2      -1.7985      2.00000
      3       1.7289      2.00000
      4       2.1117      2.00000
      5       9.0193      0.00000
      6       9.7478      0.00000
      7      11.1568      0.00000
      8      11.2298      0.00000

 k-point   286 :      -0.2857    0.4762    0.2381
  band No.  band energies     occupation 
      1      -2.1963      2.00000
      2      -1.7382      2.00000
      3       1.7371      2.00000
      4       2.0375      2.00000
      5       9.7755      0.00000
      6       9.8312      0.00000
      7      10.4141      0.00000
      8      11.0522      0.00000


--------------------------------------------------------------------------------------------------------


 soft charge-density along one line, spin component           1
         0         1         2         3         4         5         6         7         8         9
 total charge-density along one line
 
 pseudopotential strength for first ion, spin component:           1
 18.437  25.724  -0.000  -0.000  -0.000  -0.000  -0.000  -0.000
 25.724  35.894  -0.000  -0.000  -0.000  -0.000  -0.000  -0.000
 -0.000  -0.000   4.181  -0.000  -0.000   7.791  -0.000  -0.000
 -0.000  -0.000  -0.000   4.181  -0.000  -0.000   7.791  -0.000
 -0.000  -0.000  -0.000  -0.000   4.181  -0.000  -0.000   7.791
 -0.000  -0.000   7.791  -0.000  -0.000  14.530  -0.000  -0.000
 -0.000  -0.000  -0.000   7.791  -0.000  -0.000  14.530  -0.000
 -0.000  -0.000  -0.000  -0.000   7.791  -0.000  -0.000  14.530
 total augmentation occupancy for first ion, spin component:           1
  5.894  -2.257   0.000   0.000   0.000  -0.000   0.000   0.000
 -2.257   0.975   0.000   0.000   0.000  -0.000  -0.000  -0.000
  0.000   0.000   3.267   0.000  -0.000  -0.788   0.000   0.000
  0.000   0.000   0.000   3.267   0.000   0.000  -0.788  -0.000
  0.000   0.000  -0.000   0.000   3.267   0.000  -0.000  -0.788
  0.000   0.000  -0.788   0.000   0.000   0.198  -0.000  -0.000
  0.000  -0.000   0.000  -0.788  -0.000  -0.000   0.198   0.000
  0.000  -0.000   0.000  -0.000  -0.788  -0.000   0.000   0.198


------------------------ aborting loop because EDIFF is reached ----------------------------------------


 


 total charge     
 
# of ion       s       p       d       tot
------------------------------------------
    1        0.754   0.940   0.000   1.695
    2        0.754   0.940   0.000   1.695
--------------------------------------------------
tot          1.509   1.881   0.000   3.389
 
    CHARGE:  cpu time    0.0300: real time    0.0298
    FORLOC:  cpu time    0.0010: real time    0.0006
    FORNL :  cpu time    0.0650: real time    0.0648
    STRESS:  cpu time    0.2080: real time    0.2079
    FORCOR:  cpu time    0.0110: real time    0.0103
    FORHAR:  cpu time    0.0020: real time    0.0021
    MIXING:  cpu time    0.0000: real time    0.0005
    OFIELD:  cpu time    0.0000: real time    0.0000

  FORCE on cell =-STRESS in cart. coord.  units (eV):
  Direction    XX          YY          ZZ          XY          YZ          ZX
  --------------------------------------------------------------------------------------
  Alpha Z     3.29838     3.29838     3.29838
  Ewald     -75.68811   -75.68811   -75.68811     0.00000     0.00000     0.00000
  Hartree     5.04770     5.04770     5.04770    -0.00000    -0.00000    -0.00000
  E(xc)     -25.27275   -25.27275   -25.27275     0.00001     0.00001     0.00001
  Local     -29.60497   -29.60497   -29.60497     0.00005     0.00005     0.00005
  n-local    80.08667    74.28114    78.49282    -1.31364     0.49246     2.25393
  augment   -11.61863   -11.61863   -11.61863    -0.00005    -0.00005    -0.00005
  Kinetic    55.68552    54.46878    58.47600    -0.69565     1.05855     3.56740
  Fock        0.00000     0.00000     0.00000     0.00000     0.00000     0.00000
  -------------------------------------------------------------------------------------
  Total      -0.00809    -0.00809    -0.00809    -0.00000     0.00000    -0.00000
  in kB      -0.31742    -0.31742    -0.31742    -0.00000     0.00000    -0.00000
  external pressure =       -0.32 kB  Pullay stress =        0.00 kB


 VOLUME and BASIS-vectors are now :
 -----------------------------------------------------------------------------
  energy-cutoff  :      250.00
  volume of cell :       40.82
      direct lattice vectors                 reciprocal lattice vectors
     2.732926957  2.732926957  0.000000000     0.182954030  0.182954030 -0.182954030
     0.000000000  2.732926957  2.732926957    -0.182954030  0.182954030  0.182954030
     2.732926957  0.000000000  2.732926957     0.182954030 -0.182954030  0.182954030

  length of vectors
     3.864942367  3.864942367  3.864942367     0.316885675  0.316885675  0.316885675


 FORCES acting on ions
    electron-ion (+dipol)            ewald-force                    non-local-force                 convergence-correction
 -----------------------------------------------------------------------------------------------
   0.354E-05 0.357E-05 0.354E-05   0.361E-14 -.101E-13 0.125E-14   -.898E-16 -.109E-15 -.967E-16   0.170E-06 0.170E-06 0.170E-06
   -.354E-05 -.357E-05 -.354E-05   -.329E-14 0.107E-13 -.157E-14   0.955E-16 0.119E-15 0.955E-16   -.170E-06 -.170E-06 -.170E-06
 -----------------------------------------------------------------------------------------------
   0.269E-13 0.173E-13 0.217E-13   0.317E-15 0.623E-15 -.321E-15   0.569E-17 0.951E-17 -.125E-17   -.110E-14 0.124E-14 0.112E-14
 
 
 POSITION                                       TOTAL-FORCE (eV/Angst)
 -----------------------------------------------------------------------------------
      0.00000      0.00000      0.00000         0.000000     -0.000000     -0.000000
      1.36646      1.36646      1.36646        -0.000000      0.000000      0.000000
 -----------------------------------------------------------------------------------
    total drift:                                0.000000      0.000000      0.000000


--------------------------------------------------------------------------------------------------------



  FREE ENERGIE OF THE ION-ELECTRON SYSTEM (eV)
  ---------------------------------------------------
  free  energy   TOTEN  =       -10.83010515 eV

  energy  without entropy=      -10.83010515  energy(sigma->0) =      -10.83010515
 


--------------------------------------------------------------------------------------------------------


    POTLOK:  cpu time    0.0120: real time    0.0116


--------------------------------------------------------------------------------------------------------


 writing wavefunctions
     LOOP+:  cpu time    7.3409: real time    7.3832
    4ORBIT:  cpu time    0.0000: real time    0.0000
 


 total charge     
 
# of ion       s       p       d       tot
------------------------------------------
    1        0.754   0.940   0.000   1.695
    2        0.754   0.940   0.000   1.695
--------------------------------------------------
tot          1.509   1.881   0.000   3.389
 
 BZINTS: Fermi energy:  5.674884;  8.000000 electrons
         Band energy:   5.025259;  BLOECHL correction:  0.000000

 total amount of memory used by VASP MPI-rank0    54350. kBytes
=======================================================================

   base      :      30000. kBytes
   nonl-proj :       6931. kBytes
   fftplans  :       1184. kBytes
   grid      :       1806. kBytes
   one-center:          6. kBytes
   wavefun   :      14423. kBytes
 
  
  
 General timing and accounting informations for this job:
 ========================================================
  
                  Total CPU time used (sec):        8.143
                            User time (sec):        7.913
                          System time (sec):        0.230
                         Elapsed time (sec):        8.958
  
                   Maximum memory used (kb):      123344.
                   Average memory used (kb):           0.
  
                          Minor page faults:        12953
                          Major page faults:            0
                 Voluntary context switches:          457
