PROCAR lm decomposed
# of k-points:  286         # of bands:    8         # of ions:    2

 k-point     1 :    0.00000000 0.00000000 0.00000000     weight = 0.00010798

band     1 # energy   -6.19406774 # occ.  2.00000000
 
ion      s     py     pz     px    dxy    dyz    dz2    dxz  x2-y2    tot
    1  0.213  0.000  0.000  0.000  0.000  0.000  0.000  0.000  0.000  0.213
    2  0.213  0.000  0.000  0.000  0.000  0.000  0.000  0.000  0.000  0.213
tot    0.427  0.000  0.000  0.000  0.000  0.000  0.000  0.000  0.000  0.427
 
band     2 # energy    5.64320021 # occ.  2.00000000
 
ion      s     py     pz     px    dxy    dyz    dz2    dxz  x2-y2    tot
    1  0.000  0.072  0.072  0.072  0.000  0.000  0.000  0.000  0.000  0.217
    2  0.000  0.072  0.072  0.072  0.000  0.000  0.000  0.000  0.000  0.217
tot    0.000  0.145  0.145  0.145  0.000  0.000  0.000  0.000  0.000  0.435
 
band     3 # energy    5.64321702 # occ.  2.00000000
 
ion      s     py     pz     px    dxy    dyz    dz2    dxz  x2-y2    tot
    1  0.000  0.000  0.109  0.109  0.000  0.000  0.000  0.000  0.000  0.217
    2  0.000  0.000  0.109  0.109  0.000  0.000  0.000  0.000  0.000  0.217
tot    0.000  0.000  0.217  0.217  0.000  0.000  0.000  0.000  0.000  0.435
 
band     4 # energy    5.64321703 # occ.  2.00000000
 
ion      s     py     pz     px    dxy    dyz    dz2    dxz  x2-y2    tot
    1  0.000  0.145  0.036  0.036  0.000  0.000  0.000  0.000  0.000  0.217
    2  0.000  0.145  0.036  0.036  0.000  0.000  0.000  0.000  0.000  0.217
tot    0.000  0.290  0.072  0.072  0.000  0.000  0.000  0.000  0.000  0.435
 
band     5 # energy    8.20320106 # occ.  0.00000000
 
ion      s     py     pz     px    dxy    dyz    dz2    dxz  x2-y2    tot
    1  0.000  0.051  0.051  0.051  0.000  0.000  0.000  0.000  0.000  0.153
    2  0.000  0.051  0.051  0.051  0.000  0.000  0.000  0.000  0.000  0.153
tot    0.000  0.102  0.102  0.102  0.000  0.000  0.000  0.000  0.000  0.306
 
band     6 # energy    8.20321799 # occ.  0.00000000
 
ion      s     py     pz     px    dxy    dyz    dz2    dxz  x2-y2    tot
    1  0.000  0.000  0.079  0.075  0.000  0.000  0.000  0.000  0.000  0.153
    2  0.000  0.000  0.079  0.075  0.000  0.000  0.000  0.000  0.000  0.153
tot    0.000  0.000  0.157  0.149  0.000  0.000  0.000  0.000  0.000  0.306
 
band     7 # energy    8.20321799 # occ.  0.00000000
 
ion      s     py     pz     px    dxy    dyz    dz2    dxz  x2-y2    tot
    1  0.000  0.102  0.024  0.028  0.000  0.000  0.000  0.000  0.000  0.153
    2  0.000  0.102  0.024  0.028  0.000  0.000  0.000  0.000  0.000  0.153
tot    0.000  0.204  0.047  0.055  0.000  0.000  0.000  0.000  0.000  0.306
 
band     8 # energy    8.78322413 # occ.  0.00000000
 
ion      s     py     pz     px    dxy    dyz    dz2    dxz  x2-y2    tot
    1  0.361  0.000  0.000  0.000  0.000  0.000  0.000  0.000  0.000  0.361
    2  0.361  0.000  0.000  0.000  0.000  0.000  0.000  0.000  0.000  0.361
tot    0.722  0.000  0.000  0.000  0.000  0.000  0.000  0.000  0.000  0.722
 

 k-point     2 :    0.04761905-0.00000000-0.00000000     weight = 0.00086384

band     1 # energy   -6.16480995 # occ.  2.00000000
 
ion      s     py     pz     px    dxy    dyz    dz2    dxz  x2-y2    tot
    1  0.213  0.000  0.000  0.000  0.000  0.000  0.000  0.000  0.000  0.214
    2  0.213  0.000  0.000  0.000  0.000  0.000  0.000  0.000  0.000  0.214
tot    0.427  0.000  0.000  0.000  0.000  0.000  0.000  0.000  0.000  0.427
 
band     2 # energy    5.31368726 # occ.  2.00000000
 
ion      s     py     pz     px    dxy    dyz    dz2    dxz  x2-y2    tot
    1  0.021  0.066  0.066  0.066  0.000  0.000  0.000  0.000  0.000  0.220
    2  0.021  0.066  0.066  0.066  0.000  0.000  0.000  0.000  0.000  0.220
tot    0.043  0.132  0.132  0.132  0.000  0.000  0.000  0.000  0.000  0.440
 
band     3 # energy    5.59381237 # occ.  2.00000000
 
ion      s     py     pz     px    dxy    dyz    dz2    dxz  x2-y2    tot
    1  0.000  0.036  0.144  0.036  0.000  0.000  0.000  0.000  0.000  0.217
    2  0.000  0.036  0.144  0.036  0.000  0.000  0.000  0.000  0.000  0.217
tot    0.000  0.072  0.289  0.072  0.000  0.000  0.000  0.000  0.000  0.433
 
band     4 # energy    5.59382733 # occ.  2.00000000
 
ion      s     py     pz     px    dxy    dyz    dz2    dxz  x2-y2    tot
    1  0.000  0.108  0.000  0.108  0.000  0.000  0.000  0.000  0.000  0.217
    2  0.000  0.108  0.000  0.108  0.000  0.000  0.000  0.000  0.000  0.217
tot    0.000  0.217  0.000  0.217  0.000  0.000  0.000  0.000  0.000  0.433
 
band     5 # energy    8.24821832 # occ.  0.00000000
 
ion      s     py     pz     px    dxy    dyz    dz2    dxz  x2-y2    tot
    1  0.028  0.046  0.046  0.046  0.000  0.000  0.000  0.000  0.000  0.167
    2  0.028  0.046  0.046  0.046  0.000  0.000  0.000  0.000  0.000  0.167
tot    0.055  0.093  0.093  0.093  0.000  0.000  0.000  0.000  0.000  0.333
 
band     6 # energy    8.27556967 # occ.  0.00000000
 
ion      s     py     pz     px    dxy    dyz    dz2    dxz  x2-y2    tot
    1  0.000  0.026  0.103  0.026  0.000  0.000  0.000  0.000  0.000  0.154
    2  0.000  0.026  0.103  0.026  0.000  0.000  0.000  0.000  0.000  0.154
tot    0.000  0.051  0.205  0.051  0.000  0.000  0.000  0.000  0.000  0.308
 
band     7 # energy    8.27558517 # occ.  0.00000000
 
ion      s     py     pz     px    dxy    dyz    dz2    dxz  x2-y2    tot
    1  0.000  0.077  0.000  0.077  0.000  0.000  0.000  0.000  0.000  0.154
    2  0.000  0.077  0.000  0.077  0.000  0.000  0.000  0.000  0.000  0.154
tot    0.000  0.154  0.000  0.154  0.000  0.000  0.000  0.000  0.000  0.308
 
band     8 # energy    9.01703389 # occ.  0.00000000
 
ion      s     py     pz     px    dxy    dyz    dz2    dxz  x2-y2    tot
    1  0.314  0.010  0.010  0.010  0.000  0.000  0.000  0.000  0.000  0.343
    2  0.314  0.010  0.010  0.010  0.000  0.000  0.000  0.000  0.000  0.343
tot    0.629  0.019  0.019  0.019  0.000  0.000  0.000  0.000  0.000  0.686
 

 k-point     3 :    0.09523810-0.00000000-0.00000000     weight = 0.00086384

band     1 # energy   -6.07729447 # occ.  2.00000000
 
ion      s     py     pz     px    dxy    dyz    dz2    dxz  x2-y2    tot
    1  0.213  0.000  0.000  0.000  0.000  0.000  0.000  0.000  0.000  0.214
    2  0.213  0.000  0.000  0.000  0.000  0.000  0.000  0.000  0.000  0.214
tot    0.426  0.001  0.001  0.001  0.000  0.000  0.000  0.000  0.000  0.428
 
band     2 # energy    4.57997706 # occ.  2.00000000
 
ion      s     py     pz     px    dxy    dyz    dz2    dxz  x2-y2    tot
    1  0.051  0.057  0.057  0.057  0.000  0.000  0.000  0.000  0.000  0.222
    2  0.051  0.057  0.057  0.057  0.000  0.000  0.000  0.000  0.000  0.222
tot    0.101  0.114  0.114  0.114  0.000  0.000  0.000  0.000  0.000  0.443
 
band     3 # energy    5.46313489 # occ.  2.00000000
 
ion      s     py     pz     px    dxy    dyz    dz2    dxz  x2-y2    tot
    1  0.000  0.036  0.143  0.036  0.000  0.000  0.000  0.000  0.000  0.215
    2  0.000  0.036  0.143  0.036  0.000  0.000  0.000  0.000  0.000  0.215
tot    0.000  0.072  0.287  0.072  0.000  0.000  0.000  0.000  0.000  0.430
 
band     4 # energy    5.46314876 # occ.  2.00000000
 
ion      s     py     pz     px    dxy    dyz    dz2    dxz  x2-y2    tot
    1  0.000  0.107  0.000  0.107  0.000  0.000  0.000  0.000  0.000  0.215
    2  0.000  0.107  0.000  0.107  0.000  0.000  0.000  0.000  0.000  0.215
tot    0.000  0.215  0.000  0.215  0.000  0.000  0.000  0.000  0.000  0.430
 
band     5 # energy    8.18312288 # occ.  0.00000000
 
ion      s     py     pz     px    dxy    dyz    dz2    dxz  x2-y2    tot
    1  0.088  0.035  0.035  0.035  0.000  0.000  0.000  0.000  0.000  0.193
    2  0.088  0.035  0.035  0.035  0.000  0.000  0.000  0.000  0.000  0.193
tot    0.177  0.070  0.070  0.070  0.000  0.000  0.000  0.000  0.000  0.386
 
band     6 # energy    8.46643654 # occ.  0.00000000
 
ion      s     py     pz     px    dxy    dyz    dz2    dxz  x2-y2    tot
    1  0.000  0.026  0.104  0.026  0.000  0.000  0.000  0.000  0.000  0.156
    2  0.000  0.026  0.104  0.026  0.000  0.000  0.000  0.000  0.000  0.156
tot    0.000  0.052  0.208  0.052  0.000  0.000  0.000  0.000  0.000  0.312
 
band     7 # energy    8.46645170 # occ.  0.00000000
 
ion      s     py     pz     px    dxy    dyz    dz2    dxz  x2-y2    tot
    1  0.000  0.078  0.000  0.078  0.000  0.000  0.000  0.000  0.000  0.156
    2  0.000  0.078  0.000  0.078  0.000  0.000  0.000  0.000  0.000  0.156
tot    0.000  0.156  0.000  0.156  0.000  0.000  0.000  0.000  0.000  0.312
 
band     8 # energy    9.67605748 # occ.  0.00000000
 
ion      s     py     pz     px    dxy    dyz    dz2    dxz  x2-y2    tot
    1  0.230  0.027  0.027  0.027  0.000  0.000  0.000  0.000  0.000  0.309
    2  0.230  0.027  0.027  0.027  0.000  0.000  0.000  0.000  0.000  0.309
tot    0.459  0.053  0.053  0.053  0.000  0.000  0.000  0.000  0.000  0.618
 

 k-point     4 :    0.14285714-0.00000000-0.00000000     weight = 0.00086384

band     1 # energy   -5.93245833 # occ.  2.00000000
 
ion      s     py     pz     px    dxy    dyz    dz2    dxz  x2-y2    tot
    1  0.212  0.001  0.001  0.001  0.000  0.000  0.000  0.000  0.000  0.215
    2  0.212  0.001  0.001  0.001  0.000  0.000  0.000  0.000  0.000  0.215
tot    0.424  0.002  0.002  0.002  0.000  0.000  0.000  0.000  0.000  0.430
 
band     2 # energy    3.71631607 # occ.  2.00000000
 
ion      s     py     pz     px    dxy    dyz    dz2    dxz  x2-y2    tot
    1  0.071  0.050  0.050  0.050  0.000  0.000  0.000  0.000  0.000  0.221
    2  0.071  0.050  0.050  0.050  0.000  0.000  0.000  0.000  0.000  0.221
tot    0.142  0.100  0.100  0.100  0.000  0.000  0.000  0.000  0.000  0.442
 
band     3 # energy    5.29008868 # occ.  2.00000000
 
ion      s     py     pz     px    dxy    dyz    dz2    dxz  x2-y2    tot
    1  0.000  0.036  0.142  0.036  0.000  0.000  0.000  0.000  0.000  0.214
    2  0.000  0.036  0.142  0.036  0.000  0.000  0.000  0.000  0.000  0.214
tot    0.000  0.071  0.285  0.071  0.000  0.000  0.000  0.000  0.000  0.427
 
band     4 # energy    5.29010359 # occ.  2.00000000
 
ion      s     py     pz     px    dxy    dyz    dz2    dxz  x2-y2    tot
    1  0.000  0.107  0.000  0.107  0.000  0.000  0.000  0.000  0.000  0.214
    2  0.000  0.107  0.000  0.107  0.000  0.000  0.000  0.000  0.000  0.214
tot    0.000  0.214  0.000  0.214  0.000  0.000  0.000  0.000  0.000  0.427
 
band     5 # energy    8.02515499 # occ.  0.00000000
 
ion      s     py     pz     px    dxy    dyz    dz2    dxz  x2-y2    tot
    1  0.121  0.027  0.027  0.027  0.000  0.000  0.000  0.000  0.000  0.203
    2  0.121  0.027  0.027  0.027  0.000  0.000  0.000  0.000  0.000  0.203
tot    0.242  0.055  0.055  0.055  0.000  0.000  0.000  0.000  0.000  0.405
 
band     6 # energy    8.71551282 # occ.  0.00000000
 
ion      s     py     pz     px    dxy    dyz    dz2    dxz  x2-y2    tot
    1  0.000  0.026  0.104  0.026  0.000  0.000  0.000  0.000  0.000  0.156
    2  0.000  0.026  0.104  0.026  0.000  0.000  0.000  0.000  0.000  0.156
tot    0.000  0.052  0.209  0.052  0.000  0.000  0.000  0.000  0.000  0.313
 
band     7 # energy    8.71552809 # occ.  0.00000000
 
ion      s     py     pz     px    dxy    dyz    dz2    dxz  x2-y2    tot
    1  0.000  0.078  0.000  0.078  0.000  0.000  0.000  0.000  0.000  0.156
    2  0.000  0.078  0.000  0.078  0.000  0.000  0.000  0.000  0.000  0.156
tot    0.000  0.157  0.000  0.156  0.000  0.000  0.000  0.000  0.000  0.313
 
band     8 # energy   10.50095922 # occ.  0.00000000
 
ion      s     py     pz     px    dxy    dyz    dz2    dxz  x2-y2    tot
    1  0.182  0.037  0.037  0.037  0.000  0.000  0.000  0.000  0.000  0.292
    2  0.182  0.037  0.037  0.037  0.000  0.000  0.000  0.000  0.000  0.292
tot    0.364  0.073  0.073  0.073  0.000  0.000  0.000  0.000  0.000  0.584
 

 k-point     5 :    0.19047619 0.00000000 0.00000000     weight = 0.00086384

band     1 # energy   -5.73198200 # occ.  2.00000000
 
ion      s     py     pz     px    dxy    dyz    dz2    dxz  x2-y2    tot
    1  0.211  0.002  0.002  0.002  0.000  0.000  0.000  0.000  0.000  0.216
    2  0.211  0.002  0.002  0.002  0.000  0.000  0.000  0.000  0.000  0.216
tot    0.423  0.003  0.003  0.003  0.000  0.000  0.000  0.000  0.000  0.432
 
band     2 # energy    2.82844390 # occ.  2.00000000
 
ion      s     py     pz     px    dxy    dyz    dz2    dxz  x2-y2    tot
    1  0.085  0.045  0.045  0.045  0.000  0.000  0.000  0.000  0.000  0.219
    2  0.085  0.045  0.045  0.045  0.000  0.000  0.000  0.000  0.000  0.219
tot    0.170  0.089  0.089  0.089  0.000  0.000  0.000  0.000  0.000  0.439
 
band     3 # energy    5.10677822 # occ.  2.00000000
 
ion      s     py     pz     px    dxy    dyz    dz2    dxz  x2-y2    tot
    1  0.000  0.036  0.142  0.036  0.000  0.000  0.000  0.000  0.000  0.214
    2  0.000  0.036  0.142  0.036  0.000  0.000  0.000  0.000  0.000  0.214
tot    0.000  0.071  0.285  0.071  0.000  0.000  0.000  0.000  0.000  0.427
 
band     4 # energy    5.10679346 # occ.  2.00000000
 
ion      s     py     pz     px    dxy    dyz    dz2    dxz  x2-y2    tot
    1  0.000  0.107  0.000  0.107  0.000  0.000  0.000  0.000  0.000  0.214
    2  0.000  0.107  0.000  0.107  0.000  0.000  0.000  0.000  0.000  0.214
tot    0.000  0.214  0.000  0.214  0.000  0.000  0.000  0.000  0.000  0.427
 
band     5 # energy    7.83788795 # occ.  0.00000000
 
ion      s     py     pz     px    dxy    dyz    dz2    dxz  x2-y2    tot
    1  0.141  0.022  0.022  0.022  0.000  0.000  0.000  0.000  0.000  0.206
    2  0.141  0.022  0.022  0.022  0.000  0.000  0.000  0.000  0.000  0.206
tot    0.281  0.043  0.043  0.043  0.000  0.000  0.000  0.000  0.000  0.411
 
band     6 # energy    8.95354627 # occ.  0.00000000
 
ion      s     py     pz     px    dxy    dyz    dz2    dxz  x2-y2    tot
    1  0.000  0.026  0.102  0.026  0.000  0.000  0.000  0.000  0.000  0.153
    2  0.000  0.026  0.102  0.026  0.000  0.000  0.000  0.000  0.000  0.153
tot    0.000  0.051  0.204  0.051  0.000  0.000  0.000  0.000  0.000  0.306
 
band     7 # energy    8.95356644 # occ.  0.00000000
 
ion      s     py     pz     px    dxy    dyz    dz2    dxz  x2-y2    tot
    1  0.000  0.077  0.000  0.077  0.000  0.000  0.000  0.000  0.000  0.153
    2  0.000  0.077  0.000  0.077  0.000  0.000  0.000  0.000  0.000  0.153
tot    0.000  0.153  0.000  0.153  0.000  0.000  0.000  0.000  0.000  0.306
 
band     8 # energy   11.35908094 # occ.  0.00000000
 
ion      s     py     pz     px    dxy    dyz    dz2    dxz  x2-y2    tot
    1  0.150  0.044  0.044  0.044  0.000  0.000  0.000  0.000  0.000  0.281
    2  0.150  0.044  0.044  0.044  0.000  0.000  0.000  0.000  0.000  0.281
tot    0.300  0.087  0.087  0.087  0.000  0.000  0.000  0.000  0.000  0.561
 

 k-point     6 :    0.23809524 0.00000000 0.00000000     weight = 0.00086384

band     1 # energy   -5.47899189 # occ.  2.00000000
 
ion      s     py     pz     px    dxy    dyz    dz2    dxz  x2-y2    tot
    1  0.211  0.002  0.002  0.002  0.000  0.000  0.000  0.000  0.000  0.218
    2  0.211  0.002  0.002  0.002  0.000  0.000  0.000  0.000  0.000  0.218
tot    0.421  0.005  0.005  0.005  0.000  0.000  0.000  0.000  0.000  0.436
 
band     2 # energy    1.95795059 # occ.  2.00000000
 
ion      s     py     pz     px    dxy    dyz    dz2    dxz  x2-y2    tot
    1  0.095  0.041  0.041  0.041  0.000  0.000  0.000  0.000  0.000  0.217
    2  0.095  0.041  0.041  0.041  0.000  0.000  0.000  0.000  0.000  0.217
tot    0.191  0.081  0.081  0.081  0.000  0.000  0.000  0.000  0.000  0.434
 
band     3 # energy    4.93329897 # occ.  2.00000000
 
ion      s     py     pz     px    dxy    dyz    dz2    dxz  x2-y2    tot
    1  0.000  0.036  0.143  0.036  0.000  0.000  0.000  0.000  0.000  0.214
    2  0.000  0.036  0.143  0.036  0.000  0.000  0.000  0.000  0.000  0.214
tot    0.000  0.071  0.285  0.071  0.000  0.000  0.000  0.000  0.000  0.428
 
band     4 # energy    4.93331453 # occ.  2.00000000
 
ion      s     py     pz     px    dxy    dyz    dz2    dxz  x2-y2    tot
    1  0.000  0.107  0.000  0.107  0.000  0.000  0.000  0.000  0.000  0.214
    2  0.000  0.107  0.000  0.107  0.000  0.000  0.000  0.000  0.000  0.214
tot    0.000  0.214  0.000  0.214  0.000  0.000  0.000  0.000  0.000  0.428
 
band     5 # energy    7.65140624 # occ.  0.00000000
 
ion      s     py     pz     px    dxy    dyz    dz2    dxz  x2-y2    tot
    1  0.155  0.017  0.017  0.017  0.000  0.000  0.000  0.000  0.000  0.207
    2  0.155  0.017  0.017  0.017  0.000  0.000  0.000  0.000  0.000  0.207
tot    0.309  0.035  0.035  0.035  0.000  0.000  0.000  0.000  0.000  0.413
 
band     6 # energy    9.11668314 # occ.  0.00000000
 
ion      s     py     pz     px    dxy    dyz    dz2    dxz  x2-y2    tot
    1  0.000  0.024  0.096  0.024  0.000  0.000  0.000  0.000  0.000  0.144
    2  0.000  0.024  0.096  0.024  0.000  0.000  0.000  0.000  0.000  0.144
tot    0.000  0.048  0.192  0.048  0.000  0.000  0.000  0.000  0.000  0.288
 
band     7 # energy    9.11670844 # occ.  0.00000000
 
ion      s     py     pz     px    dxy    dyz    dz2    dxz  x2-y2    tot
    1  0.000  0.072  0.000  0.072  0.000  0.000  0.000  0.000  0.000  0.144
    2  0.000  0.072  0.000  0.072  0.000  0.000  0.000  0.000  0.000  0.144
tot    0.000  0.144  0.000  0.144  0.000  0.000  0.000  0.000  0.000  0.288
 
band     8 # energy   12.20019330 # occ.  0.00000000
 
ion      s     py     pz     px    dxy    dyz    dz2    dxz  x2-y2    tot
    1  0.120  0.049  0.049  0.049  0.000  0.000  0.000  0.000  0.000  0.268
    2  0.120  0.049  0.049  0.049  0.000  0.000  0.000  0.000  0.000  0.268
tot    0.239  0.099  0.099  0.099  0.000  0.000  0.000  0.000  0.000  0.536
 

 k-point     7 :    0.28571429-0.00000000-0.00000000     weight = 0.00086384

band     1 # energy   -5.17910542 # occ.  2.00000000
 
ion      s     py     pz     px    dxy    dyz    dz2    dxz  x2-y2    tot
    1  0.210  0.003  0.003  0.003  0.000  0.000  0.000  0.000  0.000  0.220
    2  0.210  0.003  0.003  0.003  0.000  0.000  0.000  0.000  0.000  0.220
tot    0.421  0.007  0.007  0.007  0.000  0.000  0.000  0.000  0.000  0.440
 
band     2 # energy    1.12710601 # occ.  2.00000000
 
ion      s     py     pz     px    dxy    dyz    dz2    dxz  x2-y2    tot
    1  0.102  0.037  0.037  0.037  0.000  0.000  0.000  0.000  0.000  0.213
    2  0.102  0.037  0.037  0.037  0.000  0.000  0.000  0.000  0.000  0.213
tot    0.205  0.074  0.074  0.074  0.000  0.000  0.000  0.000  0.000  0.427
 
band     3 # energy    4.78003543 # occ.  2.00000000
 
ion      s     py     pz     px    dxy    dyz    dz2    dxz  x2-y2    tot
    1  0.000  0.036  0.143  0.036  0.000  0.000  0.000  0.000  0.000  0.215
    2  0.000  0.036  0.143  0.036  0.000  0.000  0.000  0.000  0.000  0.215
tot    0.000  0.072  0.287  0.072  0.000  0.000  0.000  0.000  0.000  0.430
 
band     4 # energy    4.78005085 # occ.  2.00000000
 
ion      s     py     pz     px    dxy    dyz    dz2    dxz  x2-y2    tot
    1  0.000  0.107  0.000  0.108  0.000  0.000  0.000  0.000  0.000  0.215
    2  0.000  0.107  0.000  0.108  0.000  0.000  0.000  0.000  0.000  0.215
tot    0.000  0.215  0.000  0.215  0.000  0.000  0.000  0.000  0.000  0.430
 
band     5 # energy    7.48321167 # occ.  0.00000000
 
ion      s     py     pz     px    dxy    dyz    dz2    dxz  x2-y2    tot
    1  0.166  0.014  0.014  0.014  0.000  0.000  0.000  0.000  0.000  0.207
    2  0.166  0.014  0.014  0.014  0.000  0.000  0.000  0.000  0.000  0.207
tot    0.331  0.028  0.028  0.028  0.000  0.000  0.000  0.000  0.000  0.414
 
band     6 # energy    9.17693885 # occ.  0.00000000
 
ion      s     py     pz     px    dxy    dyz    dz2    dxz  x2-y2    tot
    1  0.000  0.022  0.087  0.022  0.000  0.000  0.000  0.000  0.000  0.131
    2  0.000  0.022  0.087  0.022  0.000  0.000  0.000  0.000  0.000  0.131
tot    0.000  0.044  0.174  0.044  0.000  0.000  0.000  0.000  0.000  0.261
 
band     7 # energy    9.17696797 # occ.  0.00000000
 
ion      s     py     pz     px    dxy    dyz    dz2    dxz  x2-y2    tot
    1  0.000  0.065  0.000  0.065  0.000  0.000  0.000  0.000  0.000  0.131
    2  0.000  0.065  0.000  0.065  0.000  0.000  0.000  0.000  0.000  0.131
tot    0.000  0.131  0.000  0.131  0.000  0.000  0.000  0.000  0.000  0.261
 
band     8 # energy   12.96313703 # occ.  0.00000000
 
ion      s     py     pz     px    dxy    dyz    dz2    dxz  x2-y2    tot
    1  0.078  0.054  0.054  0.054  0.000  0.000  0.000  0.000  0.000  0.240
    2  0.078  0.054  0.054  0.054  0.000  0.000  0.000  0.000  0.000  0.240
tot    0.156  0.108  0.108  0.108  0.000  0.000  0.000  0.000  0.000  0.481
 

 k-point     8 :    0.33333333 0.00000000 0.00000000     weight = 0.00086384

band     1 # energy   -4.84205822 # occ.  2.00000000
 
ion      s     py     pz     px    dxy    dyz    dz2    dxz  x2-y2    tot
    1  0.211  0.004  0.004  0.004  0.000  0.000  0.000  0.000  0.000  0.223
    2  0.211  0.004  0.004  0.004  0.000  0.000  0.000  0.000  0.000  0.223
tot    0.422  0.008  0.008  0.008  0.000  0.000  0.000  0.000  0.000  0.447
 
band     2 # energy    0.35884755 # occ.  2.00000000
 
ion      s     py     pz     px    dxy    dyz    dz2    dxz  x2-y2    tot
    1  0.107  0.034  0.034  0.034  0.000  0.000  0.000  0.000  0.000  0.210
    2  0.107  0.034  0.034  0.034  0.000  0.000  0.000  0.000  0.000  0.210
tot    0.214  0.069  0.069  0.069  0.000  0.000  0.000  0.000  0.000  0.419
 
band     3 # energy    4.65390356 # occ.  2.00000000
 
ion      s     py     pz     px    dxy    dyz    dz2    dxz  x2-y2    tot
    1  0.000  0.036  0.144  0.036  0.000  0.000  0.000  0.000  0.000  0.216
    2  0.000  0.036  0.144  0.036  0.000  0.000  0.000  0.000  0.000  0.216
tot    0.000  0.072  0.288  0.072  0.000  0.000  0.000  0.000  0.000  0.432
 
band     4 # energy    4.65391943 # occ.  2.00000000
 
ion      s     py     pz     px    dxy    dyz    dz2    dxz  x2-y2    tot
    1  0.000  0.108  0.000  0.108  0.000  0.000  0.000  0.000  0.000  0.216
    2  0.000  0.108  0.000  0.108  0.000  0.000  0.000  0.000  0.000  0.216
tot    0.000  0.216  0.000  0.216  0.000  0.000  0.000  0.000  0.000  0.432
 
band     5 # energy    7.34301486 # occ.  0.00000000
 
ion      s     py     pz     px    dxy    dyz    dz2    dxz  x2-y2    tot
    1  0.174  0.011  0.011  0.011  0.000  0.000  0.000  0.000  0.000  0.207
    2  0.174  0.011  0.011  0.011  0.000  0.000  0.000  0.000  0.000  0.207
tot    0.348  0.022  0.022  0.022  0.000  0.000  0.000  0.000  0.000  0.414
 
band     6 # energy    9.15647323 # occ.  0.00000000
 
ion      s     py     pz     px    dxy    dyz    dz2    dxz  x2-y2    tot
    1  0.000  0.020  0.078  0.020  0.000  0.000  0.000  0.000  0.000  0.117
    2  0.000  0.020  0.078  0.020  0.000  0.000  0.000  0.000  0.000  0.117
tot    0.000  0.039  0.156  0.039  0.000  0.000  0.000  0.000  0.000  0.234
 
band     7 # energy    9.15650472 # occ.  0.00000000
 
ion      s     py     pz     px    dxy    dyz    dz2    dxz  x2-y2    tot
    1  0.000  0.059  0.000  0.059  0.000  0.000  0.000  0.000  0.000  0.117
    2  0.000  0.059  0.000  0.059  0.000  0.000  0.000  0.000  0.000  0.117
tot    0.000  0.117  0.000  0.117  0.000  0.000  0.000  0.000  0.000  0.234
 
band     8 # energy   13.42996710 # occ.  0.00000000
 
ion      s     py     pz     px    dxy    dyz    dz2    dxz  x2-y2    tot
    1  0.020  0.045  0.045  0.045  0.000  0.000  0.000  0.000  0.000  0.154
    2  0.020  0.045  0.045  0.045  0.000  0.000  0.000  0.000  0.000  0.154
tot    0.041  0.089  0.089  0.089  0.000  0.000  0.000  0.000  0.000  0.309
 

 k-point     9 :    0.38095238 0.00000000 0.00000000     weight = 0.00086384

band     1 # energy   -4.48812780 # occ.  2.00000000
 
ion      s     py     pz     px    dxy    dyz    dz2    dxz  x2-y2    tot
    1  0.213  0.005  0.005  0.005  0.000  0.000  0.000  0.000  0.000  0.227
    2  0.213  0.005  0.005  0.005  0.000  0.000  0.000  0.000  0.000  0.227
tot    0.427  0.009  0.009  0.009  0.000  0.000  0.000  0.000  0.000  0.455
 
band     2 # energy   -0.32262837 # occ.  2.00000000
 
ion      s     py     pz     px    dxy    dyz    dz2    dxz  x2-y2    tot
    1  0.108  0.032  0.032  0.032  0.000  0.000  0.000  0.000  0.000  0.205
    2  0.108  0.032  0.032  0.032  0.000  0.000  0.000  0.000  0.000  0.205
tot    0.216  0.065  0.065  0.065  0.000  0.000  0.000  0.000  0.000  0.410
 
band     3 # energy    4.55780771 # occ.  2.00000000
 
ion      s     py     pz     px    dxy    dyz    dz2    dxz  x2-y2    tot
    1  0.000  0.036  0.145  0.036  0.000  0.000  0.000  0.000  0.000  0.217
    2  0.000  0.036  0.145  0.036  0.000  0.000  0.000  0.000  0.000  0.217
tot    0.000  0.072  0.290  0.072  0.000  0.000  0.000  0.000  0.000  0.434
 
band     4 # energy    4.55782390 # occ.  2.00000000
 
ion      s     py     pz     px    dxy    dyz    dz2    dxz  x2-y2    tot
    1  0.000  0.109  0.000  0.109  0.000  0.000  0.000  0.000  0.000  0.217
    2  0.000  0.109  0.000  0.109  0.000  0.000  0.000  0.000  0.000  0.217
tot    0.000  0.217  0.000  0.217  0.000  0.000  0.000  0.000  0.000  0.434
 
band     5 # energy    7.23238295 # occ.  0.00000000
 
ion      s     py     pz     px    dxy    dyz    dz2    dxz  x2-y2    tot
    1  0.180  0.009  0.009  0.009  0.000  0.000  0.000  0.000  0.000  0.208
    2  0.180  0.009  0.009  0.009  0.000  0.000  0.000  0.000  0.000  0.208
tot    0.361  0.018  0.018  0.018  0.000  0.000  0.000  0.000  0.000  0.415
 
band     6 # energy    9.09901262 # occ.  0.00000000
 
ion      s     py     pz     px    dxy    dyz    dz2    dxz  x2-y2    tot
    1  0.000  0.018  0.071  0.018  0.000  0.000  0.000  0.000  0.000  0.107
    2  0.000  0.018  0.071  0.018  0.000  0.000  0.000  0.000  0.000  0.107
tot    0.000  0.036  0.143  0.036  0.000  0.000  0.000  0.000  0.000  0.214
 
band     7 # energy    9.09904508 # occ.  0.00000000
 
ion      s     py     pz     px    dxy    dyz    dz2    dxz  x2-y2    tot
    1  0.000  0.053  0.000  0.053  0.000  0.000  0.000  0.000  0.000  0.107
    2  0.000  0.053  0.000  0.053  0.000  0.000  0.000  0.000  0.000  0.107
tot    0.000  0.107  0.000  0.107  0.000  0.000  0.000  0.000  0.000  0.214
 
band     8 # energy   13.47461007 # occ.  0.00000000
 
ion      s     py     pz     px    dxy    dyz    dz2    dxz  x2-y2    tot
    1  0.004  0.028  0.028  0.028  0.000  0.000  0.000  0.000  0.000  0.087
    2  0.004  0.028  0.028  0.028  0.000  0.000  0.000  0.000  0.000  0.087
tot    0.007  0.056  0.056  0.056  0.000  0.000  0.000  0.000  0.000  0.174
 

 k-point    10 :    0.42857143-0.00000000-0.00000000     weight = 0.00086384

band     1 # energy   -4.15979979 # occ.  2.00000000
 
ion      s     py     pz     px    dxy    dyz    dz2    dxz  x2-y2    tot
    1  0.218  0.005  0.005  0.005  0.000  0.000  0.000  0.000  0.000  0.233
    2  0.218  0.005  0.005  0.005  0.000  0.000  0.000  0.000  0.000  0.233
tot    0.436  0.010  0.010  0.010  0.000  0.000  0.000  0.000  0.000  0.465
 
band     2 # energy   -0.87100958 # occ.  2.00000000
 
ion      s     py     pz     px    dxy    dyz    dz2    dxz  x2-y2    tot
    1  0.105  0.031  0.031  0.031  0.000  0.000  0.000  0.000  0.000  0.199
    2  0.105  0.031  0.031  0.031  0.000  0.000  0.000  0.000  0.000  0.199
tot    0.211  0.063  0.063  0.063  0.000  0.000  0.000  0.000  0.000  0.399
 
band     3 # energy    4.49336617 # occ.  2.00000000
 
ion      s     py     pz     px    dxy    dyz    dz2    dxz  x2-y2    tot
    1  0.000  0.036  0.145  0.036  0.000  0.000  0.000  0.000  0.000  0.218
    2  0.000  0.036  0.145  0.036  0.000  0.000  0.000  0.000  0.000  0.218
tot    0.000  0.073  0.291  0.073  0.000  0.000  0.000  0.000  0.000  0.436
 
band     4 # energy    4.49338239 # occ.  2.00000000
 
ion      s     py     pz     px    dxy    dyz    dz2    dxz  x2-y2    tot
    1  0.000  0.109  0.000  0.109  0.000  0.000  0.000  0.000  0.000  0.218
    2  0.000  0.109  0.000  0.109  0.000  0.000  0.000  0.000  0.000  0.218
tot    0.000  0.218  0.000  0.218  0.000  0.000  0.000  0.000  0.000  0.436
 
band     5 # energy    7.15818681 # occ.  0.00000000
 
ion      s     py     pz     px    dxy    dyz    dz2    dxz  x2-y2    tot
    1  0.185  0.008  0.008  0.008  0.000  0.000  0.000  0.000  0.000  0.208
    2  0.185  0.008  0.008  0.008  0.000  0.000  0.000  0.000  0.000  0.208
tot    0.369  0.016  0.016  0.016  0.000  0.000  0.000  0.000  0.000  0.416
 
band     6 # energy    9.04338328 # occ.  0.00000000
 
ion      s     py     pz     px    dxy    dyz    dz2    dxz  x2-y2    tot
    1  0.000  0.017  0.067  0.017  0.000  0.000  0.000  0.000  0.000  0.100
    2  0.000  0.017  0.067  0.017  0.000  0.000  0.000  0.000  0.000  0.100
tot    0.000  0.033  0.134  0.033  0.000  0.000  0.000  0.000  0.000  0.201
 
band     7 # energy    9.04341551 # occ.  0.00000000
 
ion      s     py     pz     px    dxy    dyz    dz2    dxz  x2-y2    tot
    1  0.000  0.050  0.000  0.050  0.000  0.000  0.000  0.000  0.000  0.100
    2  0.000  0.050  0.000  0.050  0.000  0.000  0.000  0.000  0.000  0.100
tot    0.000  0.100  0.000  0.100  0.000  0.000  0.000  0.000  0.000  0.201
 
band     8 # energy   13.40229578 # occ.  0.00000000
 
ion      s     py     pz     px    dxy    dyz    dz2    dxz  x2-y2    tot
    1  0.004  0.021  0.021  0.021  0.000  0.000  0.000  0.000  0.000  0.067
    2  0.004  0.021  0.021  0.021  0.000  0.000  0.000  0.000  0.000  0.067
tot    0.009  0.042  0.042  0.042  0.000  0.000  0.000  0.000  0.000  0.134
 

 k-point    11 :    0.47619048 0.00000000 0.00000000     weight = 0.00086384

band     1 # energy   -3.94292598 # occ.  2.00000000
 
ion      s     py     pz     px    dxy    dyz    dz2    dxz  x2-y2    tot
    1  0.223  0.005  0.005  0.005  0.000  0.000  0.000  0.000  0.000  0.237
    2  0.223  0.005  0.005  0.005  0.000  0.000  0.000  0.000  0.000  0.237