fcc Si                                  
           1
     2.732927    2.732927    0.000000
     0.000000    2.732927    2.732927
     2.732927    0.000000    2.732927
   Si
   2
Direct configuration=     1
   0.00000000  0.00000000  0.00000000
   0.25000000  0.25000000  0.25000000
