   2   2   1   0
  0.2041193E+02  0.3864942E-09  0.3864942E-09  0.3864942E-09  0.5000000E-15
  1.000000000000000E-004
  CAR 
 fcc Si                                  
     17.47946615     -8.19385012 1000      5.65801950      1.00000000
     -8.194  0.0000E+00  0.0000E+00
     -8.168  0.0000E+00  0.0000E+00
     -8.142  0.0000E+00  0.0000E+00
     -8.117  0.0000E+00  0.0000E+00
     -8.091  0.0000E+00  0.0000E+00
     -8.065  0.0000E+00  0.0000E+00
     -8.040  0.0000E+00  0.0000E+00
     -8.014  0.0000E+00  0.0000E+00
     -7.988  0.0000E+00  0.0000E+00
     -7.963  0.0000E+00  0.0000E+00
     -7.937  0.0000E+00  0.0000E+00
     -7.911  0.0000E+00  0.0000E+00
     -7.885  0.0000E+00  0.0000E+00
     -7.860  0.0000E+00  0.0000E+00
     -7.834  0.0000E+00  0.0000E+00
     -7.808  0.0000E+00  0.0000E+00
     -7.783  0.0000E+00  0.0000E+00
     -7.757  0.0000E+00  0.0000E+00
     -7.731  0.0000E+00  0.0000E+00
     -7.706  0.0000E+00  0.0000E+00
     -7.680  0.0000E+00  0.0000E+00
     -7.654  0.0000E+00  0.0000E+00
     -7.628  0.0000E+00  0.0000E+00
     -7.603  0.0000E+00  0.0000E+00
     -7.577  0.0000E+00  0.0000E+00
     -7.551  0.0000E+00  0.0000E+00
     -7.526  0.0000E+00  0.0000E+00
     -7.500  0.0000E+00  0.0000E+00
     -7.474  0.0000E+00  0.0000E+00
     -7.449  0.0000E+00  0.0000E+00
     -7.423  0.0000E+00  0.0000E+00
     -7.397  0.0000E+00  0.0000E+00
     -7.371  0.0000E+00  0.0000E+00
     -7.346  0.0000E+00  0.0000E+00
     -7.320  0.0000E+00  0.0000E+00
     -7.294  0.0000E+00  0.0000E+00
     -7.269  0.0000E+00  0.0000E+00
     -7.243  0.0000E+00  0.0000E+00
     -7.217  0.0000E+00  0.0000E+00
     -7.192  0.0000E+00  0.0000E+00
     -7.166  0.0000E+00  0.0000E+00
     -7.140  0.0000E+00  0.0000E+00
     -7.114  0.0000E+00  0.0000E+00
     -7.089  0.0000E+00  0.0000E+00
     -7.063  0.0000E+00  0.0000E+00
     -7.037  0.0000E+00  0.0000E+00
     -7.012  0.0000E+00  0.0000E+00
     -6.986  0.0000E+00  0.0000E+00
     -6.960  0.0000E+00  0.0000E+00
     -6.935  0.0000E+00  0.0000E+00
     -6.909  0.0000E+00  0.0000E+00
     -6.883  0.0000E+00  0.0000E+00
     -6.858  0.0000E+00  0.0000E+00
     -6.832  0.0000E+00  0.0000E+00
     -6.806  0.0000E+00  0.0000E+00
     -6.780  0.0000E+00  0.0000E+00
     -6.755  0.0000E+00  0.0000E+00
     -6.729  0.0000E+00  0.0000E+00
     -6.703  0.0000E+00  0.0000E+00
     -6.678  0.0000E+00  0.0000E+00
     -6.652  0.0000E+00  0.0000E+00
     -6.626  0.0000E+00  0.0000E+00
     -6.601  0.0000E+00  0.0000E+00
     -6.575  0.0000E+00  0.0000E+00
     -6.549  0.0000E+00  0.0000E+00
     -6.523  0.0000E+00  0.0000E+00
     -6.498  0.0000E+00  0.0000E+00
     -6.472  0.0000E+00  0.0000E+00
     -6.446  0.0000E+00  0.0000E+00
     -6.421  0.0000E+00  0.0000E+00
     -6.395  0.0000E+00  0.0000E+00
     -6.369  0.0000E+00  0.0000E+00
     -6.344  0.0000E+00  0.0000E+00
     -6.318  0.0000E+00  0.0000E+00
     -6.292  0.0000E+00  0.0000E+00
     -6.266  0.0000E+00  0.0000E+00
     -6.241  0.0000E+00  0.0000E+00
     -6.215  0.0000E+00  0.0000E+00
     -6.189  0.1587E-02  0.2393E-05
     -6.164  0.6397E-01  0.7104E-03
     -6.138  0.7251E-01  0.2319E-02
     -6.112  0.9811E-01  0.4507E-02
     -6.087  0.1095E+00  0.7227E-02
     -6.061  0.1221E+00  0.1018E-01
     -6.035  0.1369E+00  0.1351E-01
     -6.009  0.1525E+00  0.1723E-01
     -5.984  0.1594E+00  0.2122E-01
     -5.958  0.1679E+00  0.2542E-01
     -5.932  0.1773E+00  0.2986E-01
     -5.907  0.1883E+00  0.3455E-01
     -5.881  0.1995E+00  0.3954E-01
     -5.855  0.2063E+00  0.4477E-01
     -5.830  0.2131E+00  0.5015E-01
     -5.804  0.2206E+00  0.5572E-01
     -5.778  0.2282E+00  0.6149E-01
     -5.752  0.2365E+00  0.6746E-01
     -5.727  0.2452E+00  0.7365E-01
     -5.701  0.2538E+00  0.8006E-01
     -5.675  0.2594E+00  0.8665E-01
     -5.650  0.2651E+00  0.9339E-01
     -5.624  0.2713E+00  0.1003E+00
     -5.598  0.2782E+00  0.1073E+00
     -5.573  0.2850E+00  0.1146E+00
     -5.547  0.2919E+00  0.1220E+00
     -5.521  0.2992E+00  0.1296E+00
     -5.495  0.3065E+00  0.1374E+00
     -5.470  0.3118E+00  0.1453E+00
     -5.444  0.3175E+00  0.1534E+00
     -5.418  0.3231E+00  0.1616E+00
     -5.393  0.3287E+00  0.1700E+00
     -5.367  0.3348E+00  0.1785E+00
     -5.341  0.3411E+00  0.1872E+00
     -5.316  0.3475E+00  0.1961E+00
     -5.290  0.3539E+00  0.2051E+00
     -5.264  0.3605E+00  0.2143E+00
     -5.238  0.3662E+00  0.2236E+00
     -5.213  0.3714E+00  0.2331E+00
     -5.187  0.3767E+00  0.2427E+00
     -5.161  0.3823E+00  0.2524E+00
     -5.136  0.3880E+00  0.2623E+00
     -5.110  0.3936E+00  0.2724E+00
     -5.084  0.3995E+00  0.2826E+00
     -5.059  0.4056E+00  0.2929E+00
     -5.033  0.4118E+00  0.3034E+00
     -5.007  0.4180E+00  0.3141E+00
     -4.981  0.4243E+00  0.3249E+00
     -4.956  0.4296E+00  0.3359E+00
     -4.930  0.4351E+00  0.3470E+00
     -4.904  0.4407E+00  0.3582E+00
     -4.879  0.4463E+00  0.3696E+00
     -4.853  0.4522E+00  0.3812E+00
     -4.827  0.4582E+00  0.3929E+00
     -4.802  0.4642E+00  0.4047E+00
     -4.776  0.4703E+00  0.4167E+00
     -4.750  0.4766E+00  0.4289E+00
     -4.724  0.4831E+00  0.4412E+00
     -4.699  0.4897E+00  0.4537E+00
     -4.673  0.4963E+00  0.4664E+00
     -4.647  0.5023E+00  0.4793E+00
     -4.622  0.5085E+00  0.4922E+00
     -4.596  0.5149E+00  0.5054E+00
     -4.570  0.5215E+00  0.5187E+00
     -4.545  0.5282E+00  0.5322E+00
     -4.519  0.5352E+00  0.5459E+00
     -4.493  0.5423E+00  0.5597E+00
     -4.467  0.5497E+00  0.5737E+00
     -4.442  0.5572E+00  0.5880E+00
     -4.416  0.5649E+00  0.6024E+00
     -4.390  0.5729E+00  0.6170E+00
     -4.365  0.5812E+00  0.6318E+00
     -4.339  0.5895E+00  0.6469E+00
     -4.313  0.5979E+00  0.6621E+00
     -4.288  0.6067E+00  0.6776E+00
     -4.262  0.6159E+00  0.6933E+00
     -4.236  0.6257E+00  0.7093E+00
     -4.211  0.6360E+00  0.7255E+00
     -4.185  0.6469E+00  0.7420E+00
     -4.159  0.6587E+00  0.7587E+00
     -4.133  0.6713E+00  0.7758E+00
     -4.108  0.6847E+00  0.7932E+00
     -4.082  0.6989E+00  0.8110E+00
     -4.056  0.7152E+00  0.8292E+00
     -4.031  0.7338E+00  0.8478E+00
     -4.005  0.7552E+00  0.8669E+00
     -3.979  0.7795E+00  0.8866E+00
     -3.954  0.8126E+00  0.9071E+00
     -3.928  0.8790E+00  0.9287E+00
     -3.902  0.9006E+00  0.9517E+00
     -3.876  0.9515E+00  0.9751E+00
     -3.851  0.9144E+00  0.9992E+00
     -3.825  0.8942E+00  0.1022E+01
     -3.799  0.8878E+00  0.1045E+01
     -3.774  0.8767E+00  0.1068E+01
     -3.748  0.8649E+00  0.1090E+01
     -3.722  0.8546E+00  0.1112E+01
     -3.697  0.8441E+00  0.1134E+01
     -3.671  0.8451E+00  0.1156E+01
     -3.645  0.8428E+00  0.1178E+01
     -3.619  0.8276E+00  0.1199E+01
     -3.594  0.8138E+00  0.1220E+01
     -3.568  0.8050E+00  0.1241E+01
     -3.542  0.7960E+00  0.1262E+01
     -3.517  0.7882E+00  0.1282E+01
     -3.491  0.7808E+00  0.1302E+01
     -3.465  0.7717E+00  0.1322E+01
     -3.440  0.7606E+00  0.1342E+01
     -3.414  0.7480E+00  0.1361E+01
     -3.388  0.7383E+00  0.1380E+01
     -3.362  0.7319E+00  0.1399E+01
     -3.337  0.7254E+00  0.1418E+01
     -3.311  0.7188E+00  0.1436E+01
     -3.285  0.7108E+00  0.1455E+01
     -3.260  0.7012E+00  0.1473E+01
     -3.234  0.6880E+00  0.1491E+01
     -3.208  0.6771E+00  0.1508E+01
     -3.183  0.6671E+00  0.1526E+01
     -3.157  0.6579E+00  0.1543E+01
     -3.131  0.6502E+00  0.1559E+01
     -3.105  0.6425E+00  0.1576E+01
     -3.080  0.6342E+00  0.1592E+01
     -3.054  0.6252E+00  0.1609E+01
     -3.028  0.6161E+00  0.1625E+01
     -3.003  0.6065E+00  0.1640E+01
     -2.977  0.5944E+00  0.1656E+01
     -2.951  0.5832E+00  0.1671E+01
     -2.926  0.5739E+00  0.1686E+01
     -2.900  0.5649E+00  0.1700E+01
     -2.874  0.5561E+00  0.1715E+01
     -2.848  0.5475E+00  0.1729E+01
     -2.823  0.5388E+00  0.1743E+01
     -2.797  0.5292E+00  0.1757E+01
     -2.771  0.5188E+00  0.1770E+01
     -2.746  0.5072E+00  0.1783E+01
     -2.720  0.4955E+00  0.1796E+01
     -2.694  0.4851E+00  0.1809E+01
     -2.669  0.4730E+00  0.1821E+01
     -2.643  0.4644E+00  0.1833E+01
     -2.617  0.4556E+00  0.1845E+01
     -2.591  0.4465E+00  0.1856E+01
     -2.566  0.4373E+00  0.1868E+01
     -2.540  0.4265E+00  0.1879E+01
     -2.514  0.4104E+00  0.1890E+01
     -2.489  0.3977E+00  0.1900E+01
     -2.463  0.3987E+00  0.1910E+01
     -2.437  0.3846E+00  0.1920E+01
     -2.412  0.3791E+00  0.1930E+01
     -2.386  0.3924E+00  0.1940E+01
     -2.360  0.3619E+00  0.1950E+01
     -2.334  0.3313E+00  0.1959E+01
     -2.309  0.3018E+00  0.1967E+01
     -2.283  0.2692E+00  0.1974E+01
     -2.257  0.2401E+00  0.1981E+01
     -2.232  0.2168E+00  0.1987E+01
     -2.206  0.1837E+00  0.1992E+01
     -2.180  0.1635E+00  0.1997E+01
     -2.155  0.5120E-01  0.2000E+01
     -2.129  0.1234E-03  0.2000E+01
     -2.103  0.0000E+00  0.2000E+01
     -2.077  0.2244E-02  0.2000E+01
     -2.052  0.6694E-02  0.2000E+01
     -2.026  0.1478E-01  0.2000E+01
     -2.000  0.2565E-01  0.2001E+01
     -1.975  0.3836E-01  0.2002E+01
     -1.949  0.5587E-01  0.2003E+01
     -1.923  0.7636E-01  0.2005E+01
     -1.898  0.9806E-01  0.2007E+01
     -1.872  0.1236E+00  0.2010E+01
     -1.846  0.1555E+00  0.2013E+01
     -1.820  0.1872E+00  0.2018E+01
     -1.795  0.2257E+00  0.2023E+01
     -1.769  0.2945E+00  0.2030E+01
     -1.743  0.3375E+00  0.2038E+01
     -1.718  0.2934E+00  0.2046E+01
     -1.692  0.3041E+00  0.2053E+01
     -1.666  0.3344E+00  0.2062E+01
     -1.641  0.3413E+00  0.2070E+01
     -1.615  0.3488E+00  0.2079E+01
     -1.589  0.3684E+00  0.2088E+01
     -1.564  0.3823E+00  0.2098E+01
     -1.538  0.4000E+00  0.2108E+01
     -1.512  0.4189E+00  0.2119E+01
     -1.486  0.4345E+00  0.2130E+01
     -1.461  0.4497E+00  0.2141E+01
     -1.435  0.4648E+00  0.2153E+01
     -1.409  0.4799E+00  0.2165E+01
     -1.384  0.4951E+00  0.2177E+01
     -1.358  0.5134E+00  0.2190E+01
     -1.332  0.5354E+00  0.2204E+01
     -1.307  0.5584E+00  0.2218E+01
     -1.281  0.5853E+00  0.2233E+01
     -1.255  0.6144E+00  0.2248E+01
     -1.229  0.6418E+00  0.2264E+01
     -1.204  0.8159E+00  0.2283E+01
     -1.178  0.9560E+00  0.2305E+01
     -1.152  0.1075E+01  0.2333E+01
     -1.127  0.1295E+01  0.2364E+01
     -1.101  0.1659E+01  0.2400E+01
     -1.075  0.2315E+01  0.2447E+01
     -1.050  0.1949E+01  0.2502E+01
     -1.024  0.1493E+01  0.2544E+01
     -0.998  0.1323E+01  0.2580E+01
     -0.972  0.1206E+01  0.2613E+01
     -0.947  0.1121E+01  0.2642E+01
     -0.921  0.1053E+01  0.2670E+01
     -0.895  0.9984E+00  0.2697E+01
     -0.870  0.9537E+00  0.2722E+01
     -0.844  0.9134E+00  0.2746E+01
     -0.818  0.8762E+00  0.2769E+01
     -0.793  0.8425E+00  0.2791E+01
     -0.767  0.8148E+00  0.2812E+01
     -0.741  0.7912E+00  0.2833E+01
     -0.715  0.7698E+00  0.2853E+01
     -0.690  0.7501E+00  0.2872E+01
     -0.664  0.7315E+00  0.2891E+01
     -0.638  0.7137E+00  0.2910E+01
     -0.613  0.6966E+00  0.2928E+01
     -0.587  0.6802E+00  0.2946E+01
     -0.561  0.6641E+00  0.2963E+01
     -0.536  0.6481E+00  0.2980E+01
     -0.510  0.6329E+00  0.2996E+01
     -0.484  0.6185E+00  0.3012E+01
     -0.458  0.6023E+00  0.3028E+01
     -0.433  0.5900E+00  0.3043E+01
     -0.407  0.5798E+00  0.3058E+01
     -0.381  0.5702E+00  0.3073E+01
     -0.356  0.5608E+00  0.3088E+01
     -0.330  0.5515E+00  0.3102E+01
     -0.304  0.5424E+00  0.3116E+01
     -0.279  0.5334E+00  0.3130E+01
     -0.253  0.5241E+00  0.3144E+01
     -0.227  0.5151E+00  0.3157E+01
     -0.201  0.5064E+00  0.3170E+01
     -0.176  0.4977E+00  0.3183E+01
     -0.150  0.4890E+00  0.3196E+01
     -0.124  0.4800E+00  0.3208E+01
     -0.099  0.4698E+00  0.3220E+01
     -0.073  0.4614E+00  0.3232E+01
     -0.047  0.4521E+00  0.3244E+01
     -0.022  0.4458E+00  0.3255E+01
      0.004  0.4400E+00  0.3267E+01
      0.030  0.4342E+00  0.3278E+01
      0.056  0.4284E+00  0.3289E+01
      0.081  0.4226E+00  0.3300E+01
      0.107  0.4169E+00  0.3311E+01
      0.133  0.4112E+00  0.3322E+01
      0.158  0.4056E+00  0.3332E+01
      0.184  0.4000E+00  0.3342E+01
      0.210  0.3941E+00  0.3353E+01
      0.235  0.3877E+00  0.3363E+01
      0.261  0.3812E+00  0.3373E+01
      0.287  0.3749E+00  0.3382E+01
      0.313  0.3688E+00  0.3392E+01
      0.338  0.3628E+00  0.3401E+01
      0.364  0.3545E+00  0.3410E+01
      0.390  0.3493E+00  0.3419E+01
      0.415  0.3451E+00  0.3428E+01
      0.441  0.3412E+00  0.3437E+01
      0.467  0.3373E+00  0.3446E+01
      0.492  0.3334E+00  0.3455E+01
      0.518  0.3295E+00  0.3463E+01
      0.544  0.3255E+00  0.3471E+01
      0.570  0.3216E+00  0.3480E+01
      0.595  0.3174E+00  0.3488E+01
      0.621  0.3130E+00  0.3496E+01
      0.647  0.3087E+00  0.3504E+01
      0.672  0.3044E+00  0.3512E+01
      0.698  0.3001E+00  0.3520E+01
      0.724  0.2957E+00  0.3527E+01
      0.749  0.2913E+00  0.3535E+01
      0.775  0.2858E+00  0.3542E+01
      0.801  0.2806E+00  0.3550E+01
      0.827  0.2757E+00  0.3557E+01
      0.852  0.2710E+00  0.3564E+01
      0.878  0.2678E+00  0.3571E+01
      0.904  0.2650E+00  0.3578E+01
      0.929  0.2621E+00  0.3584E+01
      0.955  0.2592E+00  0.3591E+01
      0.981  0.2562E+00  0.3598E+01
      1.006  0.2533E+00  0.3604E+01
      1.032  0.2503E+00  0.3611E+01
      1.058  0.2474E+00  0.3617E+01
      1.083  0.2444E+00  0.3623E+01
      1.109  0.2415E+00  0.3630E+01
      1.135  0.2385E+00  0.3636E+01
      1.161  0.2352E+00  0.3642E+01
      1.186  0.2317E+00  0.3648E+01
      1.212  0.2279E+00  0.3654E+01
      1.238  0.2242E+00  0.3660E+01
      1.263  0.2207E+00  0.3665E+01
      1.289  0.2172E+00  0.3671E+01
      1.315  0.2132E+00  0.3676E+01
      1.340  0.2795E+00  0.3682E+01
      1.366  0.4623E+00  0.3692E+01
      1.392  0.5443E+00  0.3705E+01
      1.418  0.6004E+00  0.3720E+01
      1.443  0.6836E+00  0.3736E+01
      1.469  0.7627E+00  0.3755E+01
      1.495  0.8483E+00  0.3776E+01
      1.520  0.9166E+00  0.3798E+01
      1.546  0.9933E+00  0.3823E+01
      1.572  0.1103E+01  0.3850E+01
      1.597  0.1263E+01  0.3882E+01
      1.623  0.1288E+01  0.3915E+01
      1.649  0.1305E+01  0.3948E+01
      1.675  0.1306E+01  0.3981E+01
      1.700  0.1250E+01  0.4014E+01
      1.726  0.1204E+01  0.4046E+01
      1.752  0.1158E+01  0.4078E+01
      1.777  0.1143E+01  0.4107E+01
      1.803  0.1129E+01  0.4136E+01
      1.829  0.1115E+01  0.4165E+01
      1.854  0.1107E+01  0.4194E+01
      1.880  0.1075E+01  0.4222E+01
      1.906  0.1048E+01  0.4249E+01
      1.932  0.1033E+01  0.4276E+01
      1.957  0.1022E+01  0.4303E+01
      1.983  0.1011E+01  0.4329E+01
      2.009  0.1000E+01  0.4355E+01
      2.034  0.9918E+00  0.4380E+01
      2.060  0.1029E+01  0.4407E+01
      2.086  0.1045E+01  0.4433E+01
      2.111  0.1057E+01  0.4461E+01
      2.137  0.1081E+01  0.4488E+01
      2.163  0.1035E+01  0.4515E+01
      2.189  0.1042E+01  0.4542E+01
      2.214  0.1052E+01  0.4569E+01
      2.240  0.1058E+01  0.4596E+01
      2.266  0.1065E+01  0.4623E+01
      2.291  0.1089E+01  0.4651E+01
      2.317  0.1074E+01  0.4679E+01
      2.343  0.1078E+01  0.4706E+01
      2.368  0.1084E+01  0.4734E+01
      2.394  0.1090E+01  0.4762E+01
      2.420  0.1106E+01  0.4790E+01
      2.446  0.1116E+01  0.4819E+01
      2.471  0.1123E+01  0.4849E+01
      2.497  0.1130E+01  0.4878E+01
      2.523  0.1162E+01  0.4907E+01
      2.548  0.1163E+01  0.4937E+01
      2.574  0.1187E+01  0.4967E+01
      2.600  0.1206E+01  0.4998E+01
      2.625  0.1221E+01  0.5029E+01
      2.651  0.1228E+01  0.5061E+01
      2.677  0.1242E+01  0.5093E+01
      2.703  0.1262E+01  0.5125E+01
      2.728  0.1307E+01  0.5158E+01
      2.754  0.1407E+01  0.5193E+01
      2.780  0.1403E+01  0.5229E+01
      2.805  0.1479E+01  0.5266E+01
      2.831  0.1530E+01  0.5305E+01
      2.857  0.1560E+01  0.5345E+01
      2.882  0.1584E+01  0.5385E+01
      2.908  0.1529E+01  0.5426E+01
      2.934  0.1537E+01  0.5465E+01
      2.960  0.1544E+01  0.5505E+01
      2.985  0.1527E+01  0.5544E+01
      3.011  0.1537E+01  0.5583E+01
      3.037  0.1523E+01  0.5623E+01
      3.062  0.1507E+01  0.5662E+01
      3.088  0.1499E+01  0.5700E+01
      3.114  0.1493E+01  0.5739E+01
      3.139  0.1486E+01  0.5777E+01
      3.165  0.1480E+01  0.5815E+01
      3.191  0.1474E+01  0.5853E+01
      3.217  0.1465E+01  0.5891E+01
      3.242  0.1454E+01  0.5928E+01
      3.268  0.1442E+01  0.5966E+01
      3.294  0.1431E+01  0.6003E+01
      3.319  0.1429E+01  0.6039E+01
      3.345  0.1427E+01  0.6076E+01
      3.371  0.1425E+01  0.6113E+01
      3.396  0.1422E+01  0.6149E+01
      3.422  0.1414E+01  0.6186E+01
      3.448  0.1405E+01  0.6222E+01
      3.474  0.1394E+01  0.6258E+01
      3.499  0.1383E+01  0.6294E+01
      3.525  0.1374E+01  0.6329E+01
      3.551  0.1365E+01  0.6364E+01
      3.576  0.1357E+01  0.6399E+01
      3.602  0.1352E+01  0.6434E+01
      3.628  0.1349E+01  0.6469E+01
      3.653  0.1340E+01  0.6503E+01
      3.679  0.1332E+01  0.6538E+01
      3.705  0.1322E+01  0.6572E+01
      3.730  0.1311E+01  0.6605E+01
      3.756  0.1306E+01  0.6639E+01
      3.782  0.1304E+01  0.6673E+01
      3.808  0.1302E+01  0.6706E+01
      3.833  0.1297E+01  0.6740E+01
      3.859  0.1291E+01  0.6773E+01
      3.885  0.1286E+01  0.6806E+01
      3.910  0.1283E+01  0.6839E+01
      3.936  0.1275E+01  0.6872E+01
      3.962  0.1266E+01  0.6904E+01
      3.987  0.1257E+01  0.6937E+01
      4.013  0.1250E+01  0.6969E+01
      4.039  0.1243E+01  0.7001E+01
      4.065  0.1237E+01  0.7033E+01
      4.090  0.1233E+01  0.7065E+01
      4.116  0.1228E+01  0.7096E+01
      4.142  0.1224E+01  0.7128E+01
      4.167  0.1217E+01  0.7159E+01
      4.193  0.1210E+01  0.7190E+01
      4.219  0.1208E+01  0.7221E+01
      4.244  0.1216E+01  0.7253E+01
      4.270  0.1213E+01  0.7284E+01
      4.296  0.1207E+01  0.7315E+01
      4.322  0.1200E+01  0.7346E+01
      4.347  0.1188E+01  0.7376E+01
      4.373  0.1175E+01  0.7407E+01
      4.399  0.1174E+01  0.7437E+01
      4.424  0.1159E+01  0.7467E+01
      4.450  0.1082E+01  0.7496E+01
      4.476  0.9828E+00  0.7522E+01
      4.501  0.9054E+00  0.7547E+01
      4.527  0.8579E+00  0.7569E+01
      4.553  0.8113E+00  0.7591E+01
      4.579  0.7729E+00  0.7611E+01
      4.604  0.7439E+00  0.7630E+01
      4.630  0.7151E+00  0.7649E+01
      4.656  0.6882E+00  0.7667E+01
      4.681  0.6617E+00  0.7685E+01
      4.707  0.6386E+00  0.7701E+01
      4.733  0.6165E+00  0.7717E+01
      4.758  0.5940E+00  0.7733E+01
      4.784  0.5707E+00  0.7748E+01
      4.810  0.5472E+00  0.7762E+01
      4.836  0.5263E+00  0.7776E+01
      4.861  0.5080E+00  0.7789E+01
      4.887  0.4898E+00  0.7802E+01
      4.913  0.4720E+00  0.7815E+01
      4.938  0.4565E+00  0.7826E+01
      4.964  0.4393E+00  0.7838E+01
      4.990  0.4220E+00  0.7849E+01
      5.015  0.4056E+00  0.7860E+01
      5.041  0.3911E+00  0.7870E+01
      5.067  0.3774E+00  0.7880E+01
      5.093  0.3623E+00  0.7889E+01
      5.118  0.3464E+00  0.7898E+01
      5.144  0.3311E+00  0.7907E+01
      5.170  0.3174E+00  0.7915E+01
      5.195  0.3028E+00  0.7923E+01
      5.221  0.2868E+00  0.7931E+01
      5.247  0.2714E+00  0.7938E+01
      5.272  0.2572E+00  0.7945E+01
      5.298  0.2438E+00  0.7951E+01
      5.324  0.2395E+00  0.7958E+01
      5.350  0.2304E+00  0.7964E+01
      5.375  0.2155E+00  0.7969E+01
      5.401  0.1953E+00  0.7975E+01
      5.427  0.1778E+00  0.7979E+01
      5.452  0.1629E+00  0.7984E+01
      5.478  0.1493E+00  0.7988E+01
      5.504  0.1289E+00  0.7991E+01
      5.529  0.9951E-01  0.7994E+01
      5.555  0.7987E-01  0.7997E+01
      5.581  0.6642E-01  0.7998E+01
      5.607  0.1863E-01  0.8000E+01
      5.632  0.1722E-02  0.8000E+01
      5.658  0.0000E+00  0.8000E+01
      5.684  0.0000E+00  0.8000E+01
      5.709  0.0000E+00  0.8000E+01
      5.735  0.0000E+00  0.8000E+01
      5.761  0.0000E+00  0.8000E+01
      5.786  0.0000E+00  0.8000E+01
      5.812  0.0000E+00  0.8000E+01
      5.838  0.0000E+00  0.8000E+01
      5.864  0.0000E+00  0.8000E+01
      5.889  0.0000E+00  0.8000E+01
      5.915  0.0000E+00  0.8000E+01
      5.941  0.0000E+00  0.8000E+01
      5.966  0.0000E+00  0.8000E+01
      5.992  0.0000E+00  0.8000E+01
      6.018  0.0000E+00  0.8000E+01
      6.043  0.0000E+00  0.8000E+01
      6.069  0.0000E+00  0.8000E+01
      6.095  0.0000E+00  0.8000E+01
      6.121  0.0000E+00  0.8000E+01
      6.146  0.0000E+00  0.8000E+01
      6.172  0.0000E+00  0.8000E+01
      6.198  0.0000E+00  0.8000E+01
      6.223  0.0000E+00  0.8000E+01
      6.249  0.0000E+00  0.8000E+01
      6.275  0.4341E-02  0.8000E+01
      6.300  0.2576E-01  0.8000E+01
      6.326  0.5551E-01  0.8001E+01
      6.352  0.9323E-01  0.8003E+01
      6.377  0.1250E+00  0.8006E+01
      6.403  0.1535E+00  0.8010E+01
      6.429  0.1763E+00  0.8014E+01
      6.455  0.1952E+00  0.8019E+01
      6.480  0.2131E+00  0.8024E+01
      6.506  0.2329E+00  0.8030E+01
      6.532  0.2599E+00  0.8036E+01
      6.557  0.2866E+00  0.8043E+01
      6.583  0.3115E+00  0.8051E+01
      6.609  0.3319E+00  0.8059E+01
      6.634  0.3484E+00  0.8068E+01
      6.660  0.3622E+00  0.8077E+01
      6.686  0.3748E+00  0.8086E+01
      6.712  0.3860E+00  0.8096E+01
      6.737  0.4002E+00  0.8106E+01
      6.763  0.4156E+00  0.8117E+01
      6.789  0.4301E+00  0.8128E+01
      6.814  0.4442E+00  0.8139E+01
      6.840  0.4580E+00  0.8150E+01
      6.866  0.4713E+00  0.8162E+01
      6.891  0.4855E+00  0.8175E+01
      6.917  0.4999E+00  0.8187E+01
      6.943  0.5143E+00  0.8200E+01
      6.969  0.5286E+00  0.8214E+01
      6.994  0.5434E+00  0.8228E+01
      7.020  0.5586E+00  0.8242E+01
      7.046  0.5747E+00  0.8256E+01
      7.071  0.5916E+00  0.8271E+01
      7.097  0.6094E+00  0.8287E+01
      7.123  0.6275E+00  0.8303E+01
      7.148  0.6498E+00  0.8319E+01
      7.174  0.6733E+00  0.8336E+01
      7.200  0.6971E+00  0.8354E+01
      7.226  0.7232E+00  0.8372E+01
      7.251  0.7478E+00  0.8391E+01
      7.277  0.7757E+00  0.8410E+01
      7.303  0.8063E+00  0.8431E+01
      7.328  0.8383E+00  0.8452E+01
      7.354  0.8529E+00  0.8473E+01
      7.380  0.8758E+00  0.8496E+01
      7.405  0.8993E+00  0.8519E+01
      7.431  0.9247E+00  0.8542E+01
      7.457  0.9507E+00  0.8566E+01
      7.483  0.9787E+00  0.8591E+01
      7.508  0.1006E+01  0.8616E+01
      7.534  0.1035E+01  0.8643E+01
      7.560  0.1066E+01  0.8670E+01
      7.585  0.1097E+01  0.8697E+01
      7.611  0.1129E+01  0.8726E+01
      7.637  0.1162E+01  0.8755E+01
      7.662  0.1199E+01  0.8786E+01
      7.688  0.1241E+01  0.8817E+01
      7.714  0.1288E+01  0.8850E+01
      7.740  0.1346E+01  0.8883E+01
      7.765  0.1427E+01  0.8919E+01
      7.791  0.1548E+01  0.8957E+01
      7.817  0.1641E+01  0.8998E+01
      7.842  0.1691E+01  0.9041E+01
      7.868  0.1716E+01  0.9085E+01
      7.894  0.1725E+01  0.9129E+01
      7.919  0.1720E+01  0.9173E+01
      7.945  0.1697E+01  0.9217E+01
      7.971  0.1680E+01  0.9261E+01
      7.997  0.1692E+01  0.9304E+01
      8.022  0.1695E+01  0.9348E+01
      8.048  0.1637E+01  0.9391E+01
      8.074  0.1583E+01  0.9432E+01
      8.099  0.1557E+01  0.9472E+01
      8.125  0.1560E+01  0.9512E+01
      8.151  0.1571E+01  0.9553E+01
      8.176  0.1523E+01  0.9592E+01
      8.202  0.1481E+01  0.9631E+01
      8.228  0.1438E+01  0.9668E+01
      8.254  0.1378E+01  0.9705E+01
      8.279  0.1341E+01  0.9740E+01
      8.305  0.1329E+01  0.9774E+01
      8.331  0.1345E+01  0.9809E+01
      8.356  0.1224E+01  0.9841E+01
      8.382  0.1192E+01  0.9872E+01
      8.408  0.1171E+01  0.9903E+01
      8.433  0.1164E+01  0.9932E+01
      8.459  0.1187E+01  0.9963E+01
      8.485  0.1116E+01  0.9993E+01
      8.511  0.1097E+01  0.1002E+02
      8.536  0.1095E+01  0.1005E+02
      8.562  0.1113E+01  0.1008E+02
      8.588  0.1134E+01  0.1011E+02
      8.613  0.1147E+01  0.1014E+02
      8.639  0.1149E+01  0.1017E+02
      8.665  0.1105E+01  0.1019E+02
      8.690  0.1006E+01  0.1022E+02
      8.716  0.9414E+00  0.1025E+02
      8.742  0.9137E+00  0.1027E+02
      8.767  0.8918E+00  0.1029E+02
      8.793  0.8797E+00  0.1032E+02
      8.819  0.9412E+00  0.1034E+02
      8.845  0.9971E+00  0.1036E+02
      8.870  0.1092E+01  0.1039E+02
      8.896  0.1277E+01  0.1042E+02
      8.922  0.2020E+01  0.1047E+02
      8.947  0.2477E+01  0.1052E+02
      8.973  0.2814E+01  0.1059E+02
      8.999  0.2386E+01  0.1065E+02
      9.024  0.2255E+01  0.1071E+02
      9.050  0.2184E+01  0.1077E+02
      9.076  0.2169E+01  0.1083E+02
      9.102  0.2082E+01  0.1088E+02
      9.127  0.1972E+01  0.1093E+02
      9.153  0.1878E+01  0.1098E+02
      9.179  0.1809E+01  0.1103E+02
      9.204  0.1775E+01  0.1108E+02
      9.230  0.1714E+01  0.1112E+02
      9.256  0.1737E+01  0.1117E+02
      9.281  0.1793E+01  0.1121E+02
      9.307  0.1949E+01  0.1126E+02
      9.333  0.1903E+01  0.1131E+02
      9.359  0.1872E+01  0.1136E+02
      9.384  0.1843E+01  0.1140E+02
      9.410  0.1817E+01  0.1145E+02
      9.436  0.1778E+01  0.1150E+02
      9.461  0.1727E+01  0.1154E+02
      9.487  0.1653E+01  0.1159E+02
      9.513  0.1593E+01  0.1163E+02
      9.538  0.1518E+01  0.1167E+02
      9.564  0.1461E+01  0.1171E+02
      9.590  0.1416E+01  0.1174E+02
      9.616  0.1370E+01  0.1178E+02
      9.641  0.1312E+01  0.1181E+02
      9.667  0.1281E+01  0.1185E+02
      9.693  0.1232E+01  0.1188E+02
      9.718  0.1150E+01  0.1191E+02
      9.744  0.1149E+01  0.1194E+02
      9.770  0.1151E+01  0.1197E+02
      9.795  0.1146E+01  0.1200E+02
      9.821  0.1159E+01  0.1203E+02
      9.847  0.1128E+01  0.1206E+02
      9.873  0.1127E+01  0.1209E+02
      9.898  0.1126E+01  0.1212E+02
      9.924  0.1122E+01  0.1215E+02
      9.950  0.1117E+01  0.1217E+02
      9.975  0.1125E+01  0.1220E+02
     10.001  0.1139E+01  0.1223E+02
     10.027  0.1161E+01  0.1226E+02
     10.052  0.1191E+01  0.1229E+02
     10.078  0.1249E+01  0.1232E+02
     10.104  0.1381E+01  0.1236E+02
     10.130  0.1467E+01  0.1239E+02
     10.155  0.1498E+01  0.1243E+02
     10.181  0.1471E+01  0.1247E+02
     10.207  0.1392E+01  0.1251E+02
     10.232  0.1319E+01  0.1254E+02
     10.258  0.1284E+01  0.1257E+02
     10.284  0.1263E+01  0.1261E+02
     10.309  0.1247E+01  0.1264E+02
     10.335  0.1255E+01  0.1267E+02
     10.361  0.1260E+01  0.1270E+02
     10.387  0.1282E+01  0.1274E+02
     10.412  0.1315E+01  0.1277E+02
     10.438  0.1340E+01  0.1280E+02
     10.464  0.1350E+01  0.1284E+02
     10.489  0.1344E+01  0.1287E+02
     10.515  0.1306E+01  0.1291E+02
     10.541  0.1222E+01  0.1294E+02
     10.566  0.1192E+01  0.1297E+02
     10.592  0.1189E+01  0.1300E+02
     10.618  0.1181E+01  0.1303E+02
     10.644  0.1173E+01  0.1306E+02
     10.669  0.1166E+01  0.1309E+02
     10.695  0.1163E+01  0.1312E+02
     10.721  0.1155E+01  0.1315E+02
     10.746  0.1143E+01  0.1318E+02
     10.772  0.1175E+01  0.1321E+02
     10.798  0.1200E+01  0.1324E+02
     10.823  0.1230E+01  0.1327E+02
     10.849  0.1271E+01  0.1331E+02
     10.875  0.1284E+01  0.1334E+02
     10.901  0.1203E+01  0.1337E+02
     10.926  0.1184E+01  0.1340E+02
     10.952  0.1187E+01  0.1343E+02
     10.978  0.1191E+01  0.1346E+02
     11.003  0.1191E+01  0.1349E+02
     11.029  0.1189E+01  0.1352E+02
     11.055  0.1204E+01  0.1355E+02
     11.080  0.1218E+01  0.1359E+02
     11.106  0.1204E+01  0.1362E+02
     11.132  0.1215E+01  0.1365E+02
     11.158  0.1213E+01  0.1368E+02
     11.183  0.1200E+01  0.1371E+02
     11.209  0.1182E+01  0.1374E+02
     11.235  0.1154E+01  0.1377E+02
     11.260  0.1130E+01  0.1380E+02
     11.286  0.1124E+01  0.1383E+02
     11.312  0.1121E+01  0.1386E+02
     11.337  0.1121E+01  0.1389E+02
     11.363  0.1119E+01  0.1392E+02
     11.389  0.1109E+01  0.1394E+02
     11.414  0.1091E+01  0.1397E+02
     11.440  0.1062E+01  0.1400E+02
     11.466  0.1032E+01  0.1403E+02
     11.492  0.1004E+01  0.1405E+02
     11.517  0.9965E+00  0.1408E+02
     11.543  0.9933E+00  0.1410E+02
     11.569  0.9956E+00  0.1413E+02
     11.594  0.1001E+01  0.1416E+02
     11.620  0.1009E+01  0.1418E+02
     11.646  0.1016E+01  0.1421E+02
     11.671  0.1100E+01  0.1423E+02
     11.697  0.1139E+01  0.1426E+02
     11.723  0.1083E+01  0.1429E+02
     11.749  0.1051E+01  0.1432E+02
     11.774  0.1021E+01  0.1435E+02
     11.800  0.9950E+00  0.1437E+02
     11.826  0.9707E+00  0.1440E+02
     11.851  0.9496E+00  0.1442E+02
     11.877  0.9309E+00  0.1445E+02
     11.903  0.9114E+00  0.1447E+02
     11.928  0.8913E+00  0.1449E+02
     11.954  0.8851E+00  0.1452E+02
     11.980  0.8810E+00  0.1454E+02
     12.006  0.8812E+00  0.1456E+02
     12.031  0.8861E+00  0.1458E+02
     12.057  0.8911E+00  0.1461E+02
     12.083  0.8974E+00  0.1463E+02
     12.108  0.9046E+00  0.1465E+02
     12.134  0.9509E+00  0.1468E+02
     12.160  0.1042E+01  0.1470E+02
     12.185  0.1064E+01  0.1473E+02
     12.211  0.1072E+01  0.1476E+02
     12.237  0.9851E+00  0.1478E+02
     12.263  0.9630E+00  0.1481E+02
     12.288  0.9640E+00  0.1483E+02
     12.314  0.9647E+00  0.1486E+02
     12.340  0.9645E+00  0.1488E+02
     12.365  0.9631E+00  0.1491E+02
     12.391  0.9600E+00  0.1493E+02
     12.417  0.9551E+00  0.1496E+02
     12.442  0.9491E+00  0.1498E+02
     12.468  0.9360E+00  0.1500E+02
     12.494  0.9119E+00  0.1503E+02
     12.520  0.8868E+00  0.1505E+02
     12.545  0.8623E+00  0.1507E+02
     12.571  0.8392E+00  0.1510E+02
     12.597  0.8156E+00  0.1512E+02
     12.622  0.7912E+00  0.1514E+02
     12.648  0.7726E+00  0.1516E+02
     12.674  0.7510E+00  0.1518E+02
     12.699  0.7283E+00  0.1520E+02
     12.725  0.7103E+00  0.1521E+02
     12.751  0.6978E+00  0.1523E+02
     12.777  0.6895E+00  0.1525E+02
     12.802  0.6824E+00  0.1527E+02
     12.828  0.6622E+00  0.1529E+02
     12.854  0.6589E+00  0.1530E+02
     12.879  0.6573E+00  0.1532E+02
     12.905  0.6537E+00  0.1534E+02
     12.931  0.6487E+00  0.1535E+02
     12.956  0.6473E+00  0.1537E+02
     12.982  0.6459E+00  0.1539E+02
     13.008  0.6504E+00  0.1540E+02