    2    2    1    1
  0.2041193E+02  0.3864942E-09  0.3864942E-09  0.3864942E-09  0.5000000E-15
  1.000000000000000E-004
  CAR 
 fcc Si                                  
      8    286      8
 
  0.0000000E+00  0.0000000E+00  0.0000000E+00  0.1079797E-03
    1       -6.193850   1.000000
    2        5.643444   1.000000
    3        5.643460   1.000000
    4        5.643460   1.000000
    5        8.203283   0.000000
    6        8.203300   0.000000
    7        8.203300   0.000000
    8        8.783579   0.000000
 
  0.4761905E-01 -0.3067269E-18 -0.3067269E-18  0.8638376E-03
    1       -6.164592   1.000000
    2        5.313924   1.000000
    3        5.594052   1.000000
    4        5.594067   1.000000
    5        8.248338   0.000000
    6        8.275655   0.000000
    7        8.275670   0.000000
    8        9.017374   0.000000
 
  0.9523810E-01 -0.6134537E-18 -0.6134537E-18  0.8638376E-03
    1       -6.077077   1.000000
    2        4.580206   1.000000
    3        5.463366   1.000000
    4        5.463380   1.000000
    5        8.183309   0.000000
    6        8.466530   0.000000
    7        8.466545   0.000000
    8        9.676382   0.000000
 
  0.1428571E+00 -0.5942437E-17 -0.5942437E-17  0.8638376E-03
    1       -5.932241   1.000000
    2        3.716540   1.000000
    3        5.290312   1.000000
    4        5.290326   1.000000
    5        8.025385   0.000000
    6        8.715613   0.000000
    7        8.715628   0.000000
    8       10.501300   0.000000
 
  0.1904762E+00  0.1549411E-16  0.1616325E-17  0.8638376E-03
    1       -5.731765   1.000000
    2        2.828666   1.000000
    3        5.106994   1.000000
    4        5.107009   1.000000
    5        7.838148   0.000000
    6        8.953650   0.000000
    7        8.953670   0.000000
    8       11.359453   0.000000
 
  0.2380952E+00  0.3830028E-18  0.3830028E-18  0.8638376E-03
    1       -5.478775   1.000000
    2        1.958172   1.000000
    3        4.933509   1.000000
    4        4.933525   1.000000
    5        7.651688   0.000000
    6        9.116785   0.000000
    7        9.116811   0.000000
    8       12.200602   0.000000
 
  0.2857143E+00 -0.1102172E-16 -0.1102172E-16  0.8638376E-03
    1       -5.178890   1.000000
    2        1.127328   1.000000
    3        4.780242   1.000000
    4        4.780257   1.000000
    5        7.483508   0.000000
    6        9.177036   0.000000
    7        9.177066   0.000000
    8       12.963594   0.000000
 
  0.3333333E+00  0.1622741E-17  0.1622741E-17  0.8638376E-03
    1       -4.841843   1.000000
    2        0.359070   1.000000
    3        4.654108   1.000000
    4        4.654123   1.000000
    5        7.343321   0.000000
    6        9.156566   0.000000
    7        9.156598   0.000000
    8       13.430535   0.000000
 
  0.3809524E+00  0.3098823E-16  0.3232651E-17  0.8638376E-03
    1       -4.487914   1.000000
    2       -0.322405   1.000000
    3        4.558010   1.000000
    4        4.558026   1.000000
    5        7.232695   0.000000
    6        9.099101   0.000000
    7        9.099134   0.000000
    8       13.475275   0.000000
 
  0.4285714E+00 -0.1187846E-16 -0.1187846E-16  0.8638376E-03
    1       -4.159588   1.000000
    2       -0.870785   1.000000
    3        4.493568   1.000000
    4        4.493583   1.000000
    5        7.158503   0.000000
    6        9.043469   0.000000
    7        9.043502   0.000000
    8       13.402997   0.000000
 
  0.4761905E+00  0.7660056E-18  0.7660056E-18  0.8638376E-03
    1       -3.942716   1.000000
    2       -1.198937   1.000000
    3        4.460493   1.000000
    4        4.460509   1.000000
    5        7.120808   0.000000
    6        9.009187   0.000000
    7        9.009221   0.000000
    8       13.351323   0.000000
 
  0.4761905E-01  0.4761905E-01 -0.5449304E-18  0.6478782E-03
    1       -6.154820   1.000000
    2        5.379397   1.000000
    3        5.486577   1.000000
    4        5.486588   1.000000
    5        8.108854   0.000000
    6        8.408473   0.000000
    7        8.408485   0.000000
    8        9.039210   0.000000
 
  0.9523810E-01  0.4761905E-01 -0.3067269E-18  0.2591513E-02
    1       -6.086667   1.000000
    2        4.797369   1.000000
    3        5.316124   1.000000
    4        5.435300   1.000000
    5        8.099804   0.000000
    6        8.487408   0.000000
    7        8.644495   0.000000
    8        9.520081   0.000000
 
  0.1428571E+00  0.4761905E-01 -0.2166264E-17  0.2591513E-02
    1       -5.960838   1.000000
    2        3.983692   1.000000
    3        5.121696   1.000000
    4        5.320393   1.000000
    5        8.154185   0.000000
    6        8.479810   0.000000
    7        8.926543   0.000000
    8       10.260218   0.000000
 
  0.1904762E+00  0.4761905E-01 -0.1546395E-17  0.2591513E-02
    1       -5.778671   1.000000
    2        3.112672   1.000000
    3        4.930608   1.000000
    4        5.151470   1.000000
    5        8.067066   0.000000
    6        8.629500   0.000000
    7        9.191906   0.000000
    8       10.993762   0.000000
 
  0.2380952E+00  0.4761905E-01  0.1616325E-17  0.2591513E-02
    1       -5.542875   1.000000
    2        2.242551   1.000000
    3        4.758326   1.000000
    4        4.963646   1.000000
    5        7.905247   0.000000
    6        8.824751   0.000000
    7        9.376566   0.000000
    8       11.547831   0.000000
 
  0.2857143E+00  0.4761905E-01  0.3830028E-18  0.2591513E-02
    1       -5.257888   1.000000
    2        1.402856   1.000000
    3        4.614391   1.000000
    4        4.779587   1.000000
    5        7.740997   0.000000
    6        8.949990   0.000000
    7        9.447572   0.000000
    8       11.960081   0.000000
 
  0.3333333E+00  0.4761905E-01 -0.1102172E-16  0.2591513E-02
    1       -4.931722   1.000000
    2        0.615023   1.000000
    3        4.503702   1.000000
    4        4.612398   1.000000
    5        7.597369   0.000000
    6        8.987328   0.000000
    7        9.418763   0.000000
    8       12.435585   0.000000
 
  0.3809524E+00  0.4761905E-01  0.9551676E-17  0.2591513E-02
    1       -4.580225   1.000000
    2       -0.096468   1.000000
    3        4.428563   1.000000
    4        4.468808   1.000000
    5        7.479606   0.000000
    6        8.972638   0.000000
    7        9.334142   0.000000
    8       12.976273   0.000000
 
  0.4285714E+00  0.4761905E-01  0.3232651E-17  0.2591513E-02
    1       -4.236270   1.000000
    2       -0.694977   1.000000
    3        4.353169   1.000000
    4        4.389081   1.000000
    5        7.393302   0.000000
    6        8.949404   0.000000
    7        9.236298   0.000000
    8       13.358484   0.000000
 
  0.4761905E+00  0.4761905E-01  0.5705711E-17  0.2591513E-02
    1       -3.969412   1.000000
    2       -1.108560   1.000000
    3        4.268118   1.000000
    4        4.385557   1.000000
    5        7.343315   0.000000
    6        8.945789   0.000000
    7        9.152209   0.000000
    8       13.443112   0.000000
 
 -0.4761905E+00  0.4761905E-01 -0.3239066E-17  0.2591513E-02
    1       -3.889042   1.000000
    2       -1.225784   1.000000
    3        4.216131   1.000000
    4        4.416810   1.000000
    5        7.329634   0.000000
    6        8.974559   0.000000
    7        9.098228   0.000000
    8       13.455230   0.000000
 
 -0.4285714E+00  0.4761905E-01  0.9405399E-17  0.2591513E-02
    1       -4.043540   1.000000
    2       -0.997388   1.000000
    3        4.198971   1.000000
    4        4.481700   1.000000
    5        7.353179   0.000000
    6        9.039273   0.000000
    7        9.077309   0.000000
    8       13.472399   0.000000
 
 -0.3809524E+00  0.4761905E-01  0.1187846E-16  0.2591513E-02
    1       -4.347061   1.000000
    2       -0.510966   1.000000
    3        4.217633   1.000000
    4        4.577278   1.000000
    5        7.412807   0.000000
    6        9.083970   0.000000
    7        9.131338   0.000000
    8       13.447567   0.000000
 
 -0.3333333E+00  0.4761905E-01  0.1348837E-16  0.2591513E-02
    1       -4.698945   1.000000
    2        0.131080   1.000000
    3        4.273687   1.000000
    4        4.701576   1.000000
    5        7.508732   0.000000
    6        9.099792   0.000000
    7        9.232806   0.000000
    8       13.201916   0.000000
 
 -0.2857143E+00  0.4761905E-01  0.7169345E-17  0.2591513E-02
    1       -5.044461   1.000000
    2        0.870805   1.000000
    3        4.366419   1.000000
    4        4.851106   1.000000
    5        7.636173   0.000000
    6        9.093897   0.000000
    7        9.307953   0.000000
    8       12.705020   0.000000
 
 -0.2380952E+00  0.4761905E-01 -0.7941766E-17  0.2591513E-02
    1       -5.358104   1.000000
    2        1.678368   1.000000
    3        4.495801   1.000000
    4        5.020787   1.000000
    5        7.789434   0.000000
    6        9.023900   0.000000
    7        9.306942   0.000000
    8       12.138459   0.000000
 
 -0.1904762E+00  0.4761905E-01 -0.3830028E-18  0.2591513E-02
    1       -5.627378   1.000000
    2        2.529028   1.000000
    3        4.659391   1.000000
    4        5.200883   1.000000
    5        7.964669   0.000000
    6        8.865141   0.000000
    7        9.183634   0.000000
    8       11.523474   0.000000
 
 -0.1428571E+00  0.4761905E-01 -0.1616325E-17  0.2591513E-02
    1       -5.845636   1.000000
    2        3.399389   1.000000
    3        4.853564   1.000000
    4        5.377267   1.000000
    5        8.144822   0.000000
    6        8.642917   0.000000
    7        8.942779   0.000000
    8       10.817107   0.000000
 
 -0.9523810E-01  0.4761905E-01 -0.6415201E-20  0.2591513E-02
    1       -6.009185   1.000000
    2        4.246319   1.000000
    3        5.073278   1.000000
    4        5.524241   1.000000
    5        8.301556   0.000000
    6        8.424305   0.000000
    7        8.643138   0.000000
    8       10.062627   0.000000
 
 -0.4761905E-01  0.4761905E-01  0.6134537E-18  0.1295756E-02
    1       -6.115907   1.000000
    2        4.956385   1.000000
    3        5.328638   1.000000
    4        5.606962   1.000000
    5        8.283891   0.000000
    6        8.349417   0.000000
    7        8.397295   0.000000
    8        9.385854   0.000000
 
  0.9523810E-01  0.9523810E-01 -0.1089861E-17  0.6478782E-03
    1       -6.037941   1.000000
    2        4.757904   1.000000
    3        5.119041   1.000000
    4        5.119052   1.000000
    5        7.860436   0.000000
    6        8.917176   0.000000
    7        8.917187   0.000000
    8        9.584097   0.000000
 
  0.1428571E+00  0.9523810E-01 -0.1859537E-17  0.2591513E-02
    1       -5.931190   1.000000
    2        4.143297   1.000000
    3        4.909225   1.000000
    4        5.011829   1.000000
    5        7.809328   0.000000
    6        9.005244   0.000000
    7        9.232482   0.000000
    8       10.067759   0.000000
 
  0.1904762E+00  0.9523810E-01 -0.4709115E-17  0.2591513E-02
    1       -5.767747   1.000000
    2        3.342867   1.000000
    3        4.709278   1.000000
    4        4.877714   1.000000
    5        7.903751   0.000000
    6        8.934333   0.000000
    7        9.533094   0.000000
    8       10.553271   0.000000
 
  0.2380952E+00  0.9523810E-01 -0.5942437E-17  0.2591513E-02
    1       -5.549685   1.000000
    2        2.504588   1.000000
    3        4.534092   1.000000
    4        4.688237   1.000000
    5        8.007574   0.000000
    6        8.901029   0.000000
    7        9.756507   0.000000
    8       10.781303   0.000000
 
  0.2857143E+00  0.9523810E-01  0.1616325E-17  0.2591513E-02
    1       -5.280674   1.000000
    2        1.675727   1.000000
    3        4.392098   1.000000
    4        4.479309   1.000000
    5        8.013828   0.000000
    6        8.940318   0.000000
    7        9.859825   0.000000
    8       10.972267   0.000000
 
  0.3333333E+00  0.9523810E-01 -0.4702700E-17  0.2591513E-02
    1       -4.967160   1.000000
    2        0.884363   1.000000
    3        4.274117   1.000000
    4        4.287651   1.000000
    5        7.943454   0.000000
    6        8.973891   0.000000
    7        9.842588   0.000000
    8       11.329238   0.000000
 
  0.3809524E+00  0.9523810E-01 -0.3092789E-17  0.2591513E-02
    1       -4.621734   1.000000
    2        0.154575   1.000000
    3        4.086631   1.000000
    4        4.222589   1.000000
    5        7.853912   0.000000
    6        8.965493   0.000000
    7        9.749634   0.000000
    8       11.868886   0.000000
 
  0.4285714E+00  0.9523810E-01 -0.9411814E-17  0.2591513E-02
    1       -4.269671   1.000000
    2       -0.480873   1.000000
    3        3.924877   1.000000
    4        4.198038   1.000000
    5        7.777743   0.000000
    6        8.942759   0.000000
    7        9.625068   0.000000
    8       12.523894   0.000000
 
  0.4761905E+00  0.9523810E-01  0.3232651E-17  0.2591513E-02
    1       -3.965537   1.000000
    2       -0.963361   1.000000
    3        3.794439   1.000000
    4        4.213698   1.000000
    5        7.730580   0.000000
    6        8.937503   0.000000
    7        9.503247   0.000000
    8       13.184084   0.000000
 
 -0.4761905E+00  0.9523810E-01 -0.1588353E-16  0.2591513E-02
    1       -3.810570   1.000000
    2       -1.189496   1.000000
    3        3.698512   1.000000
    4        4.267767   1.000000
    5        7.717419   0.000000
    6        8.964813   0.000000
    7        9.403338   0.000000
    8       13.617197   0.000000
 
 -0.4285714E+00  0.9523810E-01 -0.2082324E-16  0.2591513E-02
    1       -3.892528   1.000000
    2       -1.071137   1.000000
    3        3.640851   1.000000
    4        4.357841   1.000000
    5        7.739402   0.000000
    6        9.031157   0.000000
    7        9.333745   0.000000
    8       13.704691   0.000000
 
 -0.3809524E+00  0.9523810E-01 -0.7660056E-18  0.2591513E-02
    1       -4.160892   1.000000
    2       -0.658691   1.000000
    3        3.623305   1.000000
    4        4.480569   1.000000
    5        7.795765   0.000000
    6        9.131452   0.000000
    7        9.290896   0.000000
    8       13.505035   0.000000
 
 -0.3333333E+00  0.9523810E-01  0.8439046E-18  0.2591513E-02
    1       -4.505286   1.000000
    2       -0.064826   1.000000
    3        3.648622   1.000000
    4        4.632158   1.000000
    5        7.885724   0.000000
    6        9.254103   0.000000
    7        9.261895   0.000000
    8       13.022614   0.000000
 
 -0.2857143E+00  0.9523810E-01  0.1348837E-16  0.2591513E-02
    1       -4.856635   1.000000
    2        0.637001   1.000000
    3        3.718744   1.000000
    4        4.806617   1.000000
    5        8.004868   0.000000
    6        9.218132   0.000000
    7        9.363006   0.000000
    8       12.434164   0.000000
 
 -0.2380952E+00  0.9523810E-01  0.7169345E-17  0.2591513E-02
    1       -5.182341   1.000000
    2        1.407523   1.000000
    3        3.836908   1.000000
    4        4.995493   1.000000
    5        8.146097   0.000000
    6        9.119973   0.000000
    7        9.399143   0.000000
    8       11.892730   0.000000
 
 -0.1904762E+00  0.9523810E-01  0.1102172E-16  0.2591513E-02
    1       -5.466786   1.000000
    2        2.215277   1.000000
    3        4.007500   1.000000
    4        5.186489   1.000000
    5        8.304391   0.000000
    6        8.945454   0.000000
    7        9.290325   0.000000
    8       11.465162   0.000000
 
 -0.1428571E+00  0.9523810E-01 -0.3830028E-18  0.2591513E-02
    1       -5.702050   1.000000
    2        3.019276   1.000000
    3        4.244488   1.000000
    4        5.359061   1.000000
    5        8.460394   0.000000
    6        8.722260   0.000000
    7        9.018068   0.000000
    8       11.079157   0.000000
 
 -0.9523810E-01  0.9523810E-01  0.1226907E-17  0.1295756E-02
    1       -5.883726   1.000000
    2        3.735395   1.000000
    3        4.590474   1.000000
    4        5.482878   1.000000
    5        8.523719   0.000000
    6        8.546210   0.000000
    7        8.697547   0.000000
    8       10.599343   0.000000
 
  0.1428571E+00  0.1428571E+00 -0.1634791E-17  0.6478782E-03
    1       -5.843576   1.000000
    2        3.991629   1.000000
    3        4.687588   1.000000
    4        4.687598   1.000000
    5        7.532198   0.000000
    6        9.586134   0.000000
    7        9.586146   0.000000
    8        9.940796   0.000000
 
  0.1904762E+00  0.1428571E+00 -0.6515567E-18  0.2591513E-02
    1       -5.698947   1.000000
    2        3.415802   1.000000
    3        4.478993   1.000000
    4        4.521378   1.000000
    5        7.470463   0.000000
    6        9.599208   0.000000
    7        9.932680   0.000000
    8       10.160571   0.000000
 
  0.2380952E+00  0.1428571E+00 -0.6134537E-18  0.2591513E-02
    1       -5.499005   1.000000
    2        2.677990   1.000000
    3        4.297673   1.000000
    4        4.334337   1.000000
    5        7.577690   0.000000
    6        9.488328   0.000000
    7       10.211937   0.000000
    8       10.240820   0.000000
 
  0.2857143E+00  0.1428571E+00 -0.4389628E-17  0.2591513E-02
    1       -5.246767   1.000000
    2        1.900604   1.000000
    3        4.103364   1.000000
    4        4.151870   1.000000
    5        7.721650   0.000000
    6        9.476103   0.000000
    7       10.220594   0.000000
    8       10.368619   0.000000
 
  0.3333333E+00  0.1428571E+00 -0.6312610E-17  0.2591513E-02
    1       -4.947438   1.000000
    2        1.132481   1.000000
    3        3.861113   1.000000
    4        4.046123   1.000000
    5        7.797697   0.000000
    6        9.520318   0.000000
    7       10.345716   0.000000
    8       10.388209   0.000000
 
  0.3809524E+00  0.1428571E+00 -0.7545932E-17  0.2591513E-02
    1       -4.610844   1.000000
    2        0.405042   1.000000
    3        3.629892   1.000000
    4        3.982682   1.000000
    5        7.801158   0.000000
    6        9.496850   0.000000
    7       10.303988   0.000000
    8       10.766498   0.000000
 
  0.4285714E+00  0.1428571E+00  0.7941766E-17  0.2591513E-02
    1       -4.256613   1.000000
    2       -0.249502   1.000000
    3        3.422707   1.000000
    4        3.962778   1.000000
    5        7.781150   0.000000
    6        9.430223   0.000000
    7       10.169810   0.000000
    8       11.405833   0.000000
 
  0.4761905E+00  0.1428571E+00  0.1041483E-16  0.2591513E-02
    1       -3.926836   1.000000
    2       -0.781783   1.000000
    3        3.247773   1.000000
    4        3.986468   1.000000
    5        7.776471   0.000000
    6        9.373220   0.000000
    7       10.024960   0.000000
    8       12.168989   0.000000
 
 -0.4761905E+00  0.1428571E+00  0.2043354E-16  0.2591513E-02
    1       -3.708336   1.000000
    2       -1.101235   1.000000
    3        3.110713   1.000000
    4        4.051697   1.000000
    5        7.804284   0.000000
    6        9.346637   0.000000
    7        9.891631   0.000000
    8       12.987832   0.000000
 
 -0.4285714E+00  0.1428571E+00 -0.2243315E-16  0.2591513E-02
    1       -3.711177   1.000000
    2       -1.096102   1.000000
    3        3.016242   1.000000
    4        4.156412   1.000000
    5        7.869288   0.000000
    6        9.356375   0.000000
    7        9.782772   0.000000
    8       13.751429   0.000000
 
 -0.3809524E+00  0.1428571E+00  0.2537966E-16  0.2591513E-02
    1       -3.933382   1.000000
    2       -0.768874   1.000000
    3        2.967181   1.000000
    4        4.296673   1.000000
    5        7.969931   0.000000
    6        9.403905   0.000000
    7        9.697179   0.000000
    8       13.574389   0.000000
 
 -0.3333333E+00  0.1428571E+00 -0.7660056E-18  0.2591513E-02
    1       -4.264066   1.000000
    2       -0.233109   1.000000
    3        2.968369   1.000000
    4        4.467244   1.000000
    5        8.100765   0.000000
    6        9.481724   0.000000
    7        9.624372   0.000000
    8       12.902348   0.000000
 
 -0.2857143E+00  0.1428571E+00  0.1187846E-16  0.2591513E-02
    1       -4.618002   1.000000
    2        0.419157   1.000000
    3        3.025109   1.000000
    4        4.661248   1.000000
    5        8.252709   0.000000
    6        9.535460   0.000000
    7        9.563570   0.000000
    8       12.224966   0.000000
 
 -0.2380952E+00  0.1428571E+00 -0.3232651E-17  0.2591513E-02
    1       -4.953684   1.000000
    2        1.132663   1.000000
    3        3.147999   1.000000
    4        4.868072   1.000000
    5        8.413813   0.000000
    6        9.391523   0.000000
    7        9.588566   0.000000
    8       11.664588   0.000000
 
 -0.1904762E+00  0.1428571E+00 -0.9551676E-17  0.2591513E-02
    1       -5.251980   1.000000
    2        1.855902   1.000000
    3        3.360525   1.000000
    4        5.071139   1.000000
    5        8.563183   0.000000
    6        9.173653   0.000000
    7        9.454745   0.000000
    8       11.324711   0.000000
 
 -0.1428571E+00  0.1428571E+00  0.1188487E-16  0.1295756E-02
    1       -5.503158   1.000000
    2        2.511993   1.000000
    3        3.712592   1.000000
    4        5.245770   1.000000
    5        8.639789   0.000000
    6        8.923830   0.000000
    7        9.176683   0.000000
    8       11.196911   0.000000
 
  0.1904762E+00  0.1904762E+00 -0.2179722E-17  0.6478782E-03
    1       -5.573013   1.000000
    2        3.170563   1.000000
    3        4.261838   1.000000
    4        4.261848   1.000000
    5        7.187099   0.000000
    6        9.628135   0.000000
    7       10.338443   0.000000
    8       10.338455   0.000000
 
  0.2380952E+00  0.1904762E+00 -0.1233323E-17  0.2591513E-02
    1       -5.391331   1.000000
    2        2.640833   1.000000
    3        4.056950   1.000000
    4        4.072409   1.000000
    5        7.136507   0.000000
    6        9.357189   0.000000
    7       10.592866   0.000000
    8       10.691753   0.000000
 
  0.2857143E+00  0.1904762E+00 -0.5009496E-17  0.2591513E-02
    1       -5.156299   1.000000
    2        1.986118   1.000000
    3        3.804414   1.000000
    4        3.919339   1.000000
    5        7.259826   0.000000
    6        9.222912   0.000000
    7       10.605266   0.000000
    8       10.928241   0.000000
 
  0.3333333E+00  0.1904762E+00 -0.4389628E-17  0.2591513E-02
    1       -4.872182   1.000000
    2        1.291580   1.000000
    3        3.517582   1.000000
    4        3.807349   1.000000
    5        7.410100   0.000000
    6        9.322772   0.000000
    7       10.511191   0.000000
    8       11.010700   0.000000
 
  0.3809524E+00  0.1904762E+00 -0.7175760E-17  0.2591513E-02
    1       -4.546700   1.000000
    2        0.603057   1.000000
    3        3.231929   1.000000
    4        3.739771   1.000000
    5        7.489242   0.000000
    6        9.702037   0.000000
    7       10.390705   0.000000
    8       10.959338   0.000000
 
  0.4285714E+00  0.1904762E+00  0.3830028E-18  0.2591513E-02
    1       -4.195018   1.000000
    2       -0.042450   1.000000
    3        2.969640   1.000000
    4        3.717472   1.000000
    5        7.513020   0.000000
    6       10.261512   0.000000
    7       10.312025   0.000000
    8       10.833524   0.000000
 
  0.4761905E+00  0.1904762E+00 -0.8503198E-18  0.2591513E-02
    1       -3.849136   1.000000
    2       -0.598513   1.000000
    3        2.743321   1.000000
    4        3.740601   1.000000
    5        7.535136   0.000000
    6       10.167557   0.000000
    7       10.674980   0.000000
    8       11.057036   0.000000
 
 -0.4761905E+00  0.1904762E+00  0.2537324E-16  0.2591513E-02
    1       -3.580165   1.000000
    2       -0.987450   1.000000
    3        2.560401   1.000000
    4        3.807777   1.000000
    5        7.587626   0.000000
    6       10.095148   0.000000
    7       10.519684   0.000000
    8       11.904372   0.000000
 
 -0.4285714E+00  0.1904762E+00 -0.1749344E-16  0.2591513E-02
    1       -3.504325   1.000000
    2       -1.089446   1.000000
    3        2.426307   1.000000
    4        3.917385   1.000000
    5        7.681593   0.000000
    6       10.054690   0.000000
    7       10.380549   0.000000
    8       12.813654   0.000000
 
 -0.3809524E+00  0.1904762E+00 -0.2243315E-16  0.2591513E-02
    1       -3.669922   1.000000
    2       -0.856211   1.000000
    3        2.346800   1.000000
    4        4.065445   1.000000
    5        7.818424   0.000000
    6       10.046913   0.000000
    7       10.259051   0.000000
    8       13.587253   0.000000
 
 -0.3333333E+00  0.1904762E+00 -0.2082324E-16  0.2591513E-02
    1       -3.980332   1.000000
    2       -0.389480   1.000000
    3        2.329323   1.000000
    4        4.246817   1.000000
    5        7.992242   0.000000
    6       10.066590   0.000000
    7       10.142030   0.000000
    8       12.816416   0.000000
 
 -0.2857143E+00  0.1904762E+00 -0.7660056E-18  0.2591513E-02
    1       -4.332986   1.000000
    2        0.195297   1.000000
    3        2.387045   1.000000
    4        4.453395   1.000000
    5        8.190862   0.000000
    6        9.997812   0.000000
    7       10.088738   0.000000
    8       12.084758   0.000000
 
 -0.2380952E+00  0.1904762E+00  0.1187846E-16  0.2591513E-02
    1       -4.676224   1.000000
    2        0.816889   1.000000
    3        2.546070   1.000000
    4        4.673413   1.000000
    5        8.391877   0.000000
    6        9.779203   0.000000
    7       10.036720   0.000000
    8       11.519587   0.000000
 
 -0.1904762E+00  0.1904762E+00 -0.3232651E-17  0.1295756E-02
    1       -4.986459   1.000000
    2        1.393686   1.000000
    3        2.856101   1.000000
    4        4.888402   1.000000
    5        8.551449   0.000000
    6        9.481996   0.000000
    7        9.787057   0.000000
    8       11.277532   0.000000
 
  0.2380952E+00  0.2380952E+00 -0.2724652E-17  0.6478782E-03
    1       -5.227669   1.000000
    2        2.329331   1.000000
    3        3.874056   1.000000
    4        3.874066   1.000000
    5        6.867736   0.000000
    6        8.965990   0.000000
    7       11.142641   0.000000
    8       11.142655   0.000000
 
  0.2857143E+00  0.2380952E+00 -0.1578152E-17  0.2591513E-02
    1       -5.010075   1.000000
    2        1.837490   1.000000
    3        3.651024   1.000000
    4        3.711593   1.000000
    5        6.841121   0.000000
    6        8.686324   0.000000
    7       11.389232   0.000000
    8       11.488396   0.000000
 
  0.3333333E+00  0.2380952E+00 -0.3156305E-17  0.2591513E-02
    1       -4.741878   1.000000
    2        1.264025   1.000000
    3        3.342265   1.000000
    4        3.590546   1.000000
    5        6.982014   0.000000
    6        8.601493   0.000000
    7       11.403451   0.000000
    8       11.667666   0.000000
 
  0.3809524E+00  0.2380952E+00 -0.5942437E-17  0.2591513E-02
    1       -4.429289   1.000000
    2        0.661255   1.000000
    3        2.996228   1.000000
    4        3.514311   1.000000
    5        7.124479   0.000000
    6        8.796305   0.000000
    7       11.319552   0.000000
    8       11.678676   0.000000
 
  0.4285714E+00  0.2380952E+00  0.1616325E-17  0.2591513E-02
    1       -4.083688   1.000000
    2        0.068062   1.000000
    3        2.662420   1.000000
    4        3.485096   1.000000
    5        7.194265   0.000000
    6        9.282658   0.000000
    7       11.210881   0.000000
    8       11.579182   0.000000
 
  0.4761905E+00  0.2380952E+00 -0.9788402E-17  0.2591513E-02
    1       -3.729691   1.000000
    2       -0.474660   1.000000
    3        2.367500   1.000000
    4        3.502390   1.000000
    5        7.235948   0.000000
    6        9.964339   0.000000
    7       11.107670   0.000000
    8       11.425155   0.000000
 
 -0.4761905E+00  0.2380952E+00  0.1272878E-16  0.2591513E-02
    1       -3.423161   1.000000
    2       -0.898904   1.000000
    3        2.125127   1.000000
    4        3.566078   1.000000
    5        7.298723   0.000000
    6       10.712894   0.000000
    7       11.084710   0.000000
    8       11.257052   0.000000
 
 -0.4285714E+00  0.2380952E+00  0.2537324E-16  0.2591513E-02
    1       -3.274794   1.000000
    2       -1.088397   1.000000
    3        1.943646   1.000000
    4        3.673857   1.000000
    5        7.402042   0.000000
    6       10.885836   0.000000
    7       11.092852   0.000000
    8       11.747832   0.000000
 
 -0.3809524E+00  0.2380952E+00 -0.1749344E-16  0.2591513E-02
    1       -3.377560   1.000000
    2       -0.950679   1.000000
    3        1.831488   1.000000
    4        3.822412   1.000000
    5        7.552654   0.000000
    6       10.857618   0.000000
    7       10.936400   0.000000
    8       12.685907   0.000000
 
 -0.3333333E+00  0.2380952E+00 -0.1588353E-16  0.2591513E-02
    1       -3.661592   1.000000
    2       -0.564731   1.000000
    3        1.802586   1.000000
    4        4.006722   1.000000
    5        7.745534   0.000000
    6       10.768329   0.000000
    7       10.834272   0.000000
    8       12.756049   0.000000
 
 -0.2857143E+00  0.2380952E+00  0.1434510E-16  0.2591513E-02
    1       -4.009522   1.000000
    2       -0.072918   1.000000
    3        1.882646   1.000000
    4        4.219260   1.000000
    5        7.970344   0.000000
    6       10.537708   0.000000
    7       10.782718   0.000000
    8       12.022653   0.000000
 
 -0.2380952E+00  0.2380952E+00 -0.7660056E-18  0.1295756E-02
    1       -4.357058   1.000000
    2        0.413131   1.000000
    3        2.116626   1.000000
    4        4.447803   1.000000
    5        8.202880   0.000000
    6       10.195829   0.000000
    7       10.538985   0.000000
    8       11.569588   0.000000
 