       N       E                     dE             d eps       ncg     rms          rms(c)
DAV:   1    -0.108301054925E+02   -0.10830E+02   -0.52314E-07  2312   0.574E-03
DAV:   2    -0.108301054936E+02   -0.11389E-08   -0.11389E-08  2312   0.903E-04
   1 F= -.10830105E+02 E0= -.10830105E+02  d E =0.000000E+00
