fcc Si                                  
   3.90000000000000     
     1.162805    1.162805    0.000000
     0.000000    1.162805    1.162805
     1.162805    0.000000    1.162805
   Si
     2
Direct
  0.000000  0.000000  0.000000
  0.250000  0.250000  0.250000
 
   24   24   24
 -5.1399     -4.1369     -1.3910      2.3886      6.2721      9.4136      11.317      11.942      11.627      10.889    
  10.139      9.5946      9.3965      9.5946      10.139      10.889      11.627      11.942      11.317      9.4135    
  6.2719      2.3886     -1.3910     -4.1369     -4.1369     -2.1141      1.3904      5.4725      9.1669      11.761    
  12.987      13.024      12.343      11.458      10.684      10.234      10.234      10.684      11.458      12.343    
  13.024      12.987      11.761      9.1667      5.4724      1.3904     -2.1141     -4.1369     -1.3910      1.3904    
  5.1745      8.9961      12.008      13.734      14.158      13.624      12.639      11.615      10.852      10.571    
  10.852      11.615      12.639      13.624      14.157      13.734      12.008      8.9960      5.1744      1.3904    
 -1.3910     -2.4133      2.3886      5.4725      8.9961      12.086      14.125      14.899      14.579      13.567    
  12.317      11.201      10.545      10.545      11.201      12.317      13.567      14.579      14.899      14.124    
  12.086      8.9960      5.4724      2.3886     0.58858     0.58860      6.2721      9.1669      12.008      14.125    
  15.157      15.088      14.158      12.769      11.325      10.238      9.8350      10.238      11.325      12.769    
  14.158      15.088      15.157      14.125      12.008      9.1668      6.2720      4.1088      3.3076      4.1089    
  9.4136      11.761      13.734      14.899      15.088      14.360      12.987      11.329      9.8424      8.9643    
  8.9643      9.8424      11.329      12.987      14.360      15.088      14.899      13.734      11.761      9.4136    
  7.3146      6.0757      6.0757      7.3147      11.317      12.987      14.158      14.579      14.158      12.987    
  11.317      9.5737      8.2561      7.7655      8.2560      9.5737      11.317      12.987      14.157      14.579    
  14.157      12.987      11.317      9.5737      8.2560      7.7655      8.2561      9.5737      11.942      13.024    
  13.624      13.567      12.769      11.329      9.5737      7.9843      7.0402      7.0402      7.9842      9.5737    
  11.329      12.769      13.567      13.624      13.024      11.942      10.642      9.4770      8.7894      8.7894    
  9.4770      10.642      11.627      12.343      12.639      12.317      11.325      9.8424      8.2561      7.0402    
  6.5847      7.0402      8.2560      9.8424      11.325      12.317      12.639      12.343      11.627      10.679    
  9.7285      9.0257      8.7667      9.0257      9.7285      10.679      10.889      11.458      11.615      11.201    
  10.238      8.9643      7.7655      7.0402      7.0402      7.7655      8.9644      10.238      11.201      11.615    
  11.458      10.889      10.113      9.3037      8.6336      8.2540      8.2540      8.6336      9.3037      10.113    
  10.139      10.684      10.852      10.545      9.8350      8.9643      8.2560      7.9842      8.2560      8.9644    
  9.8350      10.545      10.852      10.684      10.139      9.4045      8.6282      7.9500      7.4894      7.3265    
  7.4894      7.9500      8.6282      9.4045      9.5946      10.234      10.571      10.545      10.238      9.8424    
  9.5737      9.5737      9.8424      10.238      10.545      10.571      10.234      9.5946      8.8058      7.9950    
  7.2718      6.7317      6.4437      6.4437      6.7317      7.2718      7.9950      8.8057      9.3965      10.234    
  10.852      11.201      11.325      11.329      11.317      11.329      11.325      11.201      10.852      10.234    
  9.3965      8.4663      7.5522      6.7411      6.1075      5.7058      5.5684      5.7058      6.1075      6.7411    
  7.5522      8.4662      9.5946      10.684      11.615      12.317      12.769      12.987      12.987      12.769    
  12.317      11.615      10.684      9.5946      8.4663      7.3937      6.4514      5.6989      5.1776      4.9117    
  4.9118      5.1777      5.6989      6.4514      7.3937      8.4663      10.139      11.458      12.639      13.567    
  14.158      14.360      14.157      13.567      12.639      11.458      10.139      8.8058      7.5522      6.4514    
  5.5570      4.9029      4.5064      4.3738      4.5064      4.9030      5.5571      6.4514      7.5522      8.8058    
  10.889      12.343      13.624      14.579      15.088      15.088      14.579      13.624      12.343      10.889    
  9.4045      7.9950      6.7411      5.6989      4.9029      4.3696      4.1031      4.1031      4.3696      4.9029    
  5.6989      6.7411      7.9950      9.4045      11.627      13.024      14.157      14.899      15.157      14.899    
  14.157      13.024      11.627      10.113      8.6282      7.2718      6.1075      5.1776      4.5064      4.1031    
  3.9689      4.1031      4.5064      5.1776      6.1075      7.2718      8.6282      10.113      11.942      12.987    
  13.734      14.124      14.125      13.734      12.987      11.942      10.679      9.3037      7.9500      6.7317    
  5.7058      4.9117      4.3738      4.1031      4.1031      4.3737      4.9117      5.7058      6.7317      7.9500    
  9.3037      10.679      11.317      11.761      12.008      12.086      12.008      11.761      11.317      10.642    
  9.7285      8.6336      7.4894      6.4437      5.5684      4.9118      4.5064      4.3696      4.5064      4.9117    
  5.5684      6.4437      7.4894      8.6336      9.7284      10.642      9.4135      9.1667      8.9960      8.9960    
  9.1668      9.4136      9.5737      9.4770      9.0257      8.2540      7.3265      6.4437      5.7058      5.1777    
  4.9030      4.9029      5.1776      5.7058      6.4437      7.3265      8.2540      9.0257      9.4769      9.5736    
  6.2719      5.4724      5.1744      5.4724      6.2720      7.3146      8.2560      8.7894      8.7667      8.2540    
  7.4894      6.7317      6.1075      5.6989      5.5571      5.6989      6.1075      6.7317      7.4894      8.2540    
  8.7668      8.7894      8.2560      7.3146      2.3886      1.3904      1.3904      2.3886      4.1088      6.0757    
  7.7655      8.7894      9.0257      8.6336      7.9500      7.2718      6.7411      6.4514      6.4514      6.7411    
  7.2718      7.9500      8.6336      9.0257      8.7894      7.7655      6.0757      4.1089     -1.3910     -2.1141    
 -1.3910     0.58858      3.3076      6.0757      8.2561      9.4770      9.7285      9.3037      8.6282      7.9950    
  7.5522      7.3937      7.5522      7.9950      8.6282      9.3037      9.7284      9.4769      8.2560      6.0757    
  3.3076     0.58868     -4.1369     -4.1369     -2.4133     0.58860      4.1089      7.3147      9.5737      10.642    
  10.679      10.113      9.4045      8.8057      8.4662      8.4663      8.8058      9.4045      10.113      10.679    
  10.642      9.5736      7.3146      4.1089     0.58868     -2.4132     -4.1369     -2.1141      1.3904      5.4725    
  9.1669      11.761      12.987      13.024      12.343      11.458      10.684      10.234      10.234      10.684    
  11.458      12.343      13.024      12.987      11.761      9.1667      5.4724      1.3904     -2.1141     -4.1369    
 -2.1141     0.79756      4.7680      8.7942      11.991      13.855      14.360      13.855      12.860      11.814    
  11.032      10.742      11.032      11.814      12.860      13.855      14.360      13.855      11.991      8.7940    
  4.7679     0.79749     -2.1142     -3.1831      1.3904      4.7680      8.6484      12.085      14.400      15.347    
  15.088      14.043      12.722      11.534      10.834      10.834      11.534      12.722      14.043      15.088    
  15.347      14.400      12.085      8.6483      4.7679      1.3903     -.57545     -.57542      5.4725      8.7942    
  12.085      14.585      15.873      15.893      14.899      13.362      11.753      10.539      10.088      10.539    
  11.753      13.362      14.899      15.893      15.873      14.585      12.085      8.7941      5.4724      3.0031    
  2.0906      3.0032      9.1669      11.991      14.400      15.873      16.173      15.347      13.734      11.786    
  10.040      9.0088      9.0088      10.040      11.786      13.734      15.348      16.173      15.873      14.400    
  11.991      9.1668      6.6607      5.1872      5.1872      6.6608      11.761      13.855      15.347      15.893    
  15.347      13.855      11.761      9.5917      7.9586      7.3517      7.9585      9.5916      11.761      13.855    
  15.347      15.893      15.347      13.855      11.761      9.5916      7.9585      7.3517      7.9586      9.5917    
  12.987      14.360      15.088      14.899      13.734      11.761      9.4136      7.3147      6.0757      6.0757    
  7.3146      9.4136      11.761      13.734      14.899      15.088      14.360      12.987      11.329      9.8424    
  8.9643      8.9643      9.8424      11.329      13.024      13.855      14.043      13.362      11.786      9.5917    
  7.3147      5.5969      4.9579      5.5969      7.3146      9.5916      11.786      13.362      14.043      13.855    
  13.024      11.847      10.638      9.7333      9.3984      9.7333      10.638      11.847      12.343      12.860    
  12.722      11.753      10.040      7.9586      6.0757      4.9579      4.9579      6.0757      7.9586      10.040    
  11.753      12.722      12.860      12.343      11.479      10.513      9.6842      9.2058      9.2058      9.6842    
  10.513      11.479      11.458      11.814      11.534      10.539      9.0088      7.3517      6.0757      5.5969    
  6.0757      7.3518      9.0089      10.539      11.534      11.814      11.458      10.727      9.8784      9.1016    
  8.5584      8.3634      8.5584      9.1016      9.8784      10.727      10.684      11.032      10.834      10.088    
  9.0088      7.9585      7.3146      7.3146      7.9586      9.0089      10.089      10.834      11.032      10.684    
  9.9762      9.1494      8.3652      7.7579      7.4277      7.4276      7.7578      8.3651      9.1494      9.9762    
  10.234      10.742      10.834      10.539      10.040      9.5916      9.4136      9.5916      10.040      10.539    
  10.834      10.743      10.234      9.4352      8.5471      7.7084      7.0257      6.5819      6.4283      6.5819    
  7.0257      7.7083      8.5471      9.4351      10.234      11.032      11.534      11.753      11.786      11.761    
  11.761      11.786      11.753      11.534      11.032      10.234      9.2389      8.2091      7.2595      6.4731    
  5.9145      5.6252      5.6252      5.9145      6.4732      7.2595      8.2091      9.2389      10.684      11.814    
  12.722      13.362      13.734      13.855      13.734      13.362      12.722      11.814      10.684      9.4352    
  8.2091      7.1004      6.1771      5.4887      5.0658      4.9233      5.0658      5.4888      6.1772      7.1005    
  8.2091      9.4352      11.458      12.860      14.043      14.899      15.348      15.347      14.899      14.043    
  12.860      11.458      9.9762      8.5471      7.2595      6.1771      5.3426      4.7793      4.4966      4.4966    
  4.7794      5.3427      6.1772      7.2595      8.5471      9.9762      12.343      13.855      15.088      15.893    
  16.173      15.893      15.088      13.855      12.343      10.727      9.1494      7.7084      6.4731      5.4887    
  4.7793      4.3537      4.2121      4.3537      4.7794      5.4887      6.4732      7.7084      9.1495      10.727    
  13.024      14.360      15.347      15.873      15.873      15.347      14.360      13.024      11.479      9.8784    
  8.3652      7.0257      5.9145      5.0658      4.4966      4.2121      4.2121      4.4966      5.0657      5.9145    
  7.0257      8.3652      9.8784      11.479      12.987      13.855      14.400      14.585      14.400      13.855    
  12.987      11.847      10.513      9.1016      7.7579      6.5819      5.6252      4.9233      4.4966      4.3537    
  4.4966      4.9233      5.6252      6.5819      7.7579      9.1016      10.513      11.847      11.761      11.991    
  12.085      12.085      11.991      11.761      11.329      10.638      9.6842      8.5584      7.4277      6.4283    
  5.6252      5.0658      4.7794      4.7794      5.0657      5.6252      6.4282      7.4276      8.5584      9.6842    
  10.637      11.329      9.1667      8.7940      8.6483      8.7941      9.1668      9.5916      9.8424      9.7333    
  9.2058      8.3634      7.4276      6.5819      5.9145      5.4888      5.3427      5.4887      5.9145      6.5819    
  7.4276      8.3634      9.2058      9.7333      9.8424      9.5915      5.4724      4.7679      4.7679      5.4724    
  6.6607      7.9585      8.9643      9.3984      9.2058      8.5584      7.7578      7.0257      6.4732      6.1772    
  6.1772      6.4732      7.0257      7.7579      8.5584      9.2058      9.3985      8.9644      7.9586      6.6607    
  1.3904     0.79749      1.3903      3.0031      5.1872      7.3517      8.9643      9.7333      9.6842      9.1016    
  8.3651      7.7083      7.2595      7.1005      7.2595      7.7084      8.3652      9.1016      9.6842      9.7333    
  8.9644      7.3518      5.1873      3.0032     -2.1141     -2.1142     -.57545      2.0906      5.1872      7.9586    
  9.8424      10.638      10.513      9.8784      9.1494      8.5471      8.2091      8.2091      8.5471      9.1495    
  9.8784      10.513      10.637      9.8424      7.9586      5.1873      2.0907     -.57535     -4.1369     -3.1831    
 -.57542      3.0032      6.6608      9.5917      11.329      11.847      11.479      10.727      9.9762      9.4351    
  9.2389      9.4352      9.9762      10.727      11.479      11.847      11.329      9.5915      6.6607      3.0032    
 -.57535     -3.1830     -1.3910      1.3904      5.1745      8.9961      12.008      13.734      14.158      13.624    
  12.639      11.615      10.852      10.571      10.852      11.615      12.639      13.624      14.157      13.734    
  12.008      8.9960      5.1744      1.3904     -1.3910     -2.4133      1.3904      4.7680      8.6484      12.085    
  14.400      15.347      15.088      14.043      12.722      11.534      10.834      10.834      11.534      12.722    
  14.043      15.088      15.347      14.400      12.085      8.6483      4.7679      1.3903     -.57545     -.57542    
  5.1745      8.6484      12.101      14.739      16.119      16.173      15.157      13.566      11.898      10.640    
  10.171      10.640      11.898      13.566      15.157      16.173      16.119      14.739      12.101      8.6483    
  5.1743      2.5962      1.6443      2.5963      8.9961      12.085      14.739      16.387      16.750      15.873    
  14.125      12.014      10.123      9.0068      9.0068      10.123      12.014      14.125      15.873      16.750    
  16.387      14.739      12.085      8.9960      6.2642      4.6609      4.6610      6.2643      12.008      14.400    
  16.119      16.750      16.119      14.400      12.008      9.5423      7.6909      7.0037      7.6909      9.5422    
  12.008      14.400      16.119      16.750      16.119      14.400      12.008      9.5422      7.6909      7.0037    
  7.6909      9.5423      13.734      15.347      16.173      15.873      14.400      11.991      9.1669      6.6608    
  5.1872      5.1872      6.6607      9.1668      11.991      14.400      15.873      16.173      15.348      13.734    
  11.786      10.040      9.0088      9.0088      10.040      11.786      14.158      15.088      15.157      14.125    
  12.008      9.1669      6.2721      4.1089      3.3076      4.1088      6.2720      9.1668      12.008      14.125    
  15.157      15.088      14.158      12.769      11.325      10.238      9.8350      10.238      11.325      12.769    
  13.624      14.043      13.566      12.014      9.5423      6.6608      4.1089      2.6101      2.6101      4.1089    
  6.6608      9.5423      12.014      13.566      14.043      13.624      12.676      11.553      10.565      9.9886    
  9.9886      10.565      11.553      12.676      12.639      12.722      11.898      10.123      7.6909      5.1872    
  3.3076      2.6101      3.3076      5.1873      7.6910      10.123      11.898      12.722      12.639      11.954    
  11.047      10.172      9.5419      9.3125      9.5419      10.172      11.047      11.954      11.615      11.534    
  10.640      9.0068      7.0037      5.1872      4.1088      4.1089      5.1873      7.0038      9.0069      10.640    
  11.534      11.615      11.078      10.261      9.4302      8.7624      8.3922      8.3922      8.7624      9.4301    
  10.261      11.077      10.852      10.834      10.171      9.0068      7.6909      6.6607      6.2720      6.6608    
  7.6910      9.0069      10.172      10.834      10.852      10.323      9.5114      8.6702      7.9509      7.4697    
  7.3008      7.4697      7.9509      8.6702      9.5114      10.323      10.571      10.834      10.640      10.123    
  9.5422      9.1668      9.1668      9.5423      10.123      10.640      10.834      10.571      9.8894      8.9812    
  8.0649      7.2666      6.6803      6.3709      6.3709      6.6803      7.2666      8.0649      8.9812      9.8894    
  10.852      11.534      11.898      12.014      12.008      11.991      12.008      12.014      11.898      11.534    
  10.852      9.8894      8.7904      7.7313      6.8127      6.1068      5.6643      5.5137      5.6643      6.1069    
  6.8128      7.7313      8.7904      9.8894      11.615      12.722      13.566      14.125      14.400      14.400    
  14.125      13.566      12.722      11.615      10.323      8.9812      7.7313      6.6541      5.8060      5.2243    
  4.9294      4.9295      5.2244      5.8060      6.6542      7.7314      8.9812      10.323      12.639      14.043    
  15.157      15.873      16.119      15.873      15.157      14.043      12.639      11.078      9.5114      8.0649    
  6.8127      5.8060      5.0751      4.6342      4.4872      4.6343      5.0752      5.8060      6.8128      8.0649    
  9.5115      11.078      13.624      15.088      16.173      16.750      16.750      16.173      15.088      13.624    
  11.954      10.261      8.6702      7.2666      6.1068      5.2243      4.6342      4.3398      4.3398      4.6343    
  5.2243      6.1068      7.2666      8.6702      10.261      11.954      14.157      15.347      16.119      16.387    
  16.119      15.348      14.158      12.676      11.047      9.4302      7.9509      6.6803      5.6643      4.9294    
  4.4872      4.3398      4.4872      4.9294      5.6642      6.6803      7.9509      9.4301      11.047      12.675    
  13.734      14.400      14.739      14.739      14.400      13.734      12.769      11.553      10.172      8.7624    
  7.4697      6.3709      5.5137      4.9295      4.6343      4.6343      4.9294      5.5137      6.3708      7.4697    
  8.7624      10.172      11.553      12.769      12.008      12.085      12.101      12.085      12.008      11.786    
  11.325      10.565      9.5419      8.3922      7.3008      6.3709      5.6643      5.2244      5.0752      5.2243    
  5.6642      6.3708      7.3008      8.3922      9.5419      10.565      11.325      11.786      8.9960      8.6483    
  8.6483      8.9960      9.5422      10.040      10.238      9.9886      9.3125      8.3922      7.4697      6.6803    
  6.1069      5.8060      5.8060      6.1068      6.6803      7.4697      8.3922      9.3126      9.9887      10.238    
  10.040      9.5422      5.1744      4.7679      5.1743      6.2642      7.6909      9.0088      9.8350      9.9886    
  9.5419      8.7624      7.9509      7.2666      6.8128      6.6542      6.8128      7.2666      7.9509      8.7624    
  9.5419      9.9887      9.8350      9.0089      7.6910      6.2643      1.3904      1.3903      2.5962      4.6609    
  7.0037      9.0088      10.238      10.565      10.172      9.4301      8.6702      8.0649      7.7313      7.7314    
  8.0649      8.6702      9.4301      10.172      10.565      10.238      9.0089      7.0038      4.6610      2.5963    
 -1.3910     -.57545      1.6443      4.6610      7.6909      10.040      11.325      11.553      11.047      10.261    
  9.5114      8.9812      8.7904      8.9812      9.5115      10.261      11.047      11.553      11.325      10.040    
  7.6910      4.6610      1.6444     -.57538     -2.4133     -.57542      2.5963      6.2643      9.5423      11.786    
  12.769      12.676      11.954      11.077      10.323      9.8894      9.8894      10.323      11.078      11.954    
  12.675      12.769      11.786      9.5422      6.2643      2.5963     -.57538     -2.4132      2.3886      5.4725    
  8.9961      12.086      14.125      14.899      14.579      13.567      12.317      11.201      10.545      10.545    
  11.201      12.317      13.567      14.579      14.899      14.124      12.086      8.9960      5.4724      2.3886    
 0.58858     0.58860      5.4725      8.7942      12.085      14.585      15.873      15.893      14.899      13.362    
  11.753      10.539      10.088      10.539      11.753      13.362      14.899      15.893      15.873      14.585    
  12.085      8.7941      5.4724      3.0031      2.0906      3.0032      8.9961      12.085      14.739      16.387    
  16.750      15.873      14.125      12.014      10.123      9.0068      9.0068      10.123      12.014      14.125    
  15.873      16.750      16.387      14.739      12.085      8.9960      6.2642      4.6609      4.6610      6.2643    
  12.086      14.585      16.387      17.048      16.387      14.585      12.086      9.5151      7.5857      6.8698    
  7.5857      9.5150      12.086      14.585      16.387      17.048      16.387      14.585      12.086      9.5150    
  7.5857      6.8698      7.5857      9.5151      14.125      15.873      16.750      16.387      14.739      12.085    
  8.9961      6.2643      4.6610      4.6609      6.2642      8.9960      12.085      14.739      16.387      16.750    
  15.873      14.125      12.014      10.123      9.0068      9.0068      10.123      12.014      14.899      15.893    
  15.873      14.585      12.085      8.7942      5.4725      3.0032      2.0906      3.0031      5.4724      8.7941    
  12.085      14.585      15.873      15.893      14.899      13.362      11.753      10.539      10.088      10.539    
  11.753      13.362      14.579      14.899      14.125      12.086      8.9961      5.4725      2.3886     0.58860    
 0.58858      2.3886      5.4724      8.9960      12.086      14.124      14.899      14.579      13.567      12.317    
  11.201      10.545      10.545      11.201      12.317      13.567      13.567      13.362      12.014      9.5151    
  6.2643      3.0032     0.58860     -.30181     0.58862      3.0032      6.2643      9.5151      12.014      13.362    
  13.567      12.962      12.007      11.044      10.336      10.075      10.336      11.044      12.007      12.962    
  12.317      11.753      10.123      7.5857      4.6610      2.0906     0.58858     0.58862      2.0907      4.6611    
  7.5858      10.123      11.753      12.317      12.007      11.231      10.370      9.6531      9.2472      9.2472    
  9.6530      10.370      11.231      12.007      11.201      10.539      9.0068      6.8698      4.6609      3.0031    
  2.3886      3.0032      4.6611      6.8699      9.0069      10.539      11.201      11.044      10.370      9.5491    
  8.8082      8.2977      8.1161      8.2976      8.8081      9.5491      10.370      11.044      10.545      10.088    
  9.0068      7.5857      6.2642      5.4724      5.4724      6.2643      7.5858      9.0069      10.089      10.545    
  10.336      9.6531      8.8082      8.0208      7.4193      7.0949      7.0949      7.4193      8.0208      8.8081    
  9.6530      10.336      10.545      10.539      10.123      9.5150      8.9960      8.7941      8.9960      9.5151    
  10.123      10.539      10.545      10.075      9.2472      8.2977      7.4193      6.7157      6.2629      6.1069    
  6.2629      6.7157      7.4193      8.2976      9.2472      10.075      11.201      11.753      12.014      12.086    
  12.085      12.085      12.086      12.014      11.753      11.201      10.336      9.2472      8.1161      7.0949    
  6.2629      5.6780      5.3770      5.3770      5.6781      6.2629      7.0949      8.1161      9.2472      10.336    
  12.317      13.362      14.125      14.585      14.739      14.585      14.124      13.362      12.317      11.044    
  9.6531      8.2977      7.0949      6.1069      5.3770      4.9312      4.7815      4.9312      5.3770      6.1069    
  7.0949      8.2977      9.6531      11.044      13.567      14.899      15.873      16.387      16.387      15.873    
  14.899      13.567      12.007      10.370      8.8082      7.4193      6.2629      5.3770      4.7814      4.4832    
  4.4832      4.7815      5.3770      6.2629      7.4193      8.8082      10.370      12.007      14.579      15.893    
  16.750      17.048      16.750      15.893      14.579      12.962      11.231      9.5491      8.0208      6.7157    
  5.6780      4.9312      4.4832      4.3342      4.4832      4.9312      5.6780      6.7157      8.0208      9.5491    
  11.231      12.962      14.899      15.873      16.387      16.387      15.873      14.899      13.567      12.007    
  10.370      8.8082      7.4193      6.2629      5.3770      4.7815      4.4832      4.4832      4.7814      5.3770    
  6.2629      7.4193      8.8082      10.370      12.007      13.567      14.124      14.585      14.739      14.585    
  14.125      13.362      12.317      11.044      9.6531      8.2977      7.0949      6.1069      5.3770      4.9312    
  4.7815      4.9312      5.3770      6.1069      7.0949      8.2977      9.6531      11.044      12.317      13.362    
  12.086      12.085      12.085      12.086      12.014      11.753      11.201      10.336      9.2472      8.1161    
  7.0949      6.2629      5.6781      5.3770      5.3770      5.6780      6.2629      7.0949      8.1161      9.2472    
  10.336      11.201      11.753      12.014      8.9960      8.7941      8.9960      9.5150      10.123      10.539    
  10.545      10.075      9.2472      8.2976      7.4193      6.7157      6.2629      6.1069      6.2629      6.7157    
  7.4193      8.2977      9.2472      10.075      10.545      10.539      10.123      9.5151      5.4724      5.4724    
  6.2642      7.5857      9.0068      10.088      10.545      10.336      9.6530      8.8081      8.0208      7.4193    
  7.0949      7.0949      7.4193      8.0208      8.8082      9.6531      10.336      10.545      10.089      9.0069    
  7.5858      6.2643      2.3886      3.0031      4.6609      6.8698      9.0068      10.539      11.201      11.044    
  10.370      9.5491      8.8081      8.2976      8.1161      8.2977      8.8082      9.5491      10.370      11.044    
  11.201      10.539      9.0069      6.8699      4.6611      3.0032     0.58858      2.0906      4.6610      7.5857    
  10.123      11.753      12.317      12.007      11.231      10.370      9.6530      9.2472      9.2472      9.6531    
  10.370      11.231      12.007      12.317      11.753      10.123      7.5858      4.6611      2.0907     0.58862    
 0.58860      3.0032      6.2643      9.5151      12.014      13.362      13.567      12.962      12.007      11.044    
  10.336      10.075      10.336      11.044      12.007      12.962      13.567      13.362      12.014      9.5151    
  6.2643      3.0032     0.58862     -.30181      6.2721      9.1669      12.008      14.125      15.157      15.088    
  14.158      12.769      11.325      10.238      9.8350      10.238      11.325      12.769      14.158      15.088    
  15.157      14.125      12.008      9.1668      6.2720      4.1088      3.3076      4.1089      9.1669      11.991    
  14.400      15.873      16.173      15.347      13.734      11.786      10.040      9.0088      9.0088      10.040    
  11.786      13.734      15.348      16.173      15.873      14.400      11.991      9.1668      6.6607      5.1872    
  5.1872      6.6608      12.008      14.400      16.119      16.750      16.119      14.400      12.008      9.5423    
  7.6909      7.0037      7.6909      9.5422      12.008      14.400      16.119      16.750      16.119      14.400    
  12.008      9.5422      7.6909      7.0037      7.6909      9.5423      14.125      15.873      16.750      16.387    
  14.739      12.085      8.9961      6.2643      4.6610      4.6609      6.2642      8.9960      12.085      14.739    
  16.387      16.750      15.873      14.125      12.014      10.123      9.0068      9.0068      10.123      12.014    
  15.157      16.173      16.119      14.739      12.101      8.6484      5.1745      2.5963      1.6443      2.5962    
  5.1743      8.6483      12.101      14.739      16.119      16.173      15.157      13.566      11.898      10.640    
  10.171      10.640      11.898      13.566      15.088      15.347      14.400      12.085      8.6484      4.7680    
  1.3904     -.57542     -.57545      1.3903      4.7679      8.6483      12.085      14.400      15.347      15.088    
  14.043      12.722      11.534      10.834      10.834      11.534      12.722      14.043      14.158      13.734    