fcc Si                                  
   3.90000000000000     
     0.700751    0.700751    0.000000
     0.000000    0.700751    0.700751
     0.700751    0.000000    0.700751
   Si
     2
Direct
 -0.000000 -0.000000 -0.000000
  0.250000  0.250000  0.250000
 
   24   24   24
 -.75464482002E+01 -.45848978532E+01 0.27102834186E+01 0.10646967975E+02 0.15818016394E+02
 0.17005238386E+02 0.15351324334E+02 0.12880356884E+02 0.10578640510E+02 0.87808826846E+01
 0.75668599497E+01 0.68872272160E+01 0.66708728438E+01 0.68873640520E+01 0.75670218393E+01
 0.87809120844E+01 0.10578428657E+02 0.12879912112E+02 0.15350773598E+02 0.17004760607E+02
 0.15817746982E+02 0.10646930491E+02 0.27103872161E+01 -.45847945563E+01 -.45848978532E+01
 0.82246388732E+00 0.87784407411E+01 0.15488522913E+02 0.18565093564E+02 0.18094721305E+02
 0.15891219933E+02 0.13477392767E+02 0.11392557016E+02 0.98450737914E+01 0.88576897512E+01
 0.83840753216E+01 0.83841582285E+01 0.88578763635E+01 0.98452130019E+01 0.11392498343E+02
 0.13477082212E+02 0.15890740515E+02 0.18094249068E+02 0.18564799100E+02 0.15488480730E+02
 0.87785946014E+01 0.82266291055E+00 -.45848096059E+01 0.27102834186E+01 0.87784407411E+01
 0.15251357564E+02 0.19277266389E+02 0.19957336081E+02 0.18387637114E+02 0.16180364349E+02
 0.14047749930E+02 0.12300405606E+02 0.11046438474E+02 0.10299927516E+02 0.10052576379E+02
 0.10300040652E+02 0.11046586826E+02 0.12300474956E+02 0.14047659947E+02 0.16180125277E+02
 0.18387347261E+02 0.19957121792E+02 0.19277211535E+02 0.15251462817E+02 0.87786237873E+01
 0.27104209023E+01 0.22644044450E+00 0.10646967975E+02 0.15488522913E+02 0.19277266389E+02
 0.20612059917E+02 0.19814372340E+02 0.18127057917E+02 0.16264368932E+02 0.14563366253E+02
 0.13185303512E+02 0.12210303344E+02 0.11700941567E+02 0.11700954931E+02 0.12210338631E+02
 0.13185342759E+02 0.14563382215E+02 0.16264346717E+02 0.18127009662E+02 0.19814324134E+02
 0.20612030865E+02 0.19277264110E+02 0.15488545615E+02 0.10646999815E+02 0.72507191627E+01
 0.72507040554E+01 0.15818016394E+02 0.18565093564E+02 0.19957336081E+02 0.19814372340E+02
 0.18839009277E+02 0.17536555704E+02 0.16180366460E+02 0.14916640745E+02 0.13849886403E+02
 0.13113821722E+02 0.12847348393E+02 0.13113735156E+02 0.13849770490E+02 0.14916563705E+02
 0.16180364870E+02 0.17536621668E+02 0.18839093811E+02 0.19814402956E+02 0.19957260241E+02
 0.18564923328E+02 0.15817826401E+02 0.13038519369E+02 0.11866083417E+02 0.13038641113E+02
 0.17005238386E+02 0.18094721305E+02 0.18387637114E+02 0.18127057917E+02 0.17536555704E+02
 0.16769406323E+02 0.15891216145E+02 0.14959412706E+02 0.14108841708E+02 0.13569863953E+02
 0.13569765138E+02 0.14108600621E+02 0.14959154402E+02 0.15891053269E+02 0.16769381139E+02
 0.17536624091E+02 0.18127108749E+02 0.18387553134E+02 0.18094462746E+02 0.17004882856E+02
 0.15438413723E+02 0.14274938642E+02 0.14275056555E+02 0.15438716693E+02 0.15351324334E+02
 0.15891219933E+02 0.16180364349E+02 0.16264368932E+02 0.16180366460E+02 0.15891216145E+02
 0.15351315704E+02 0.14597242643E+02 0.13862845479E+02 0.13551056934E+02 0.13862618551E+02
 0.14596895373E+02 0.15350989254E+02 0.15891007864E+02 0.16180290378E+02 0.16264354173E+02
 0.16180292745E+02 0.15891004459E+02 0.15350980947E+02 0.14596891841E+02 0.13862620752E+02
 0.13551056854E+02 0.13862843203E+02 0.14597246305E+02 0.12880356884E+02 0.13477392767E+02
 0.14047749930E+02 0.14563366253E+02 0.14916640745E+02 0.14959412706E+02 0.14597242643E+02
 0.13921552939E+02 0.13371894216E+02 0.13371788485E+02 0.13921281733E+02 0.14596910839E+02
 0.14959120532E+02 0.14916442816E+02 0.14563259150E+02 0.14047677142E+02 0.13477278929E+02
 0.12880166867E+02 0.12270084345E+02 0.11726488998E+02 0.11394674321E+02 0.11394744420E+02
 0.11726673478E+02 0.12270312675E+02 0.10578640510E+02 0.11392557016E+02 0.12300405606E+02
 0.13185303512E+02 0.13849886403E+02 0.14108841708E+02 0.13862845479E+02 0.13371894216E+02
 0.13126816836E+02 0.13371781235E+02 0.13862662773E+02 0.14108644095E+02 0.13849716130E+02
 0.13185186497E+02 0.12300346629E+02 0.11392533918E+02 0.10578620509E+02 0.98925787491E+01
 0.93469937652E+01 0.89807625598E+01 0.88496860450E+01 0.89807806031E+01 0.93470251787E+01
 0.98926096279E+01 0.87808826846E+01 0.98450737914E+01 0.11046438474E+02 0.12210303344E+02
 0.13113821722E+02 0.13569863953E+02 0.13551056934E+02 0.13371788485E+02 0.13371781235E+02
 0.13551039473E+02 0.13569842068E+02 0.13113797041E+02 0.12210283105E+02 0.11046441611E+02
 0.98451166209E+01 0.87809635947E+01 0.79292391519E+01 0.72951164739E+01 0.68678423470E+01
 0.66495881207E+01 0.66495555661E+01 0.68677584333E+01 0.72950099918E+01 0.79291355781E+01
 0.75668599497E+01 0.88576897512E+01 0.10299927516E+02 0.11700941567E+02 0.12847348393E+02
 0.13569765138E+02 0.13862618551E+02 0.13921281733E+02 0.13862662773E+02 0.13569842068E+02
 0.12847436335E+02 0.11701021535E+02 0.10299999327E+02 0.88577700214E+01 0.75669635304E+01
 0.65309672790E+01 0.57660432579E+01 0.52458624503E+01 0.49426508120E+01 0.48426255248E+01
 0.49425752559E+01 0.52457384119E+01 0.57659048949E+01 0.65308397658E+01 0.68872272160E+01
 0.83840753216E+01 0.10052576379E+02 0.11700954931E+02 0.13113735156E+02 0.14108600621E+02
 0.14596895373E+02 0.14596910839E+02 0.14108644095E+02 0.13113797041E+02 0.11701021535E+02
 0.10052639002E+02 0.83841359038E+01 0.68872925483E+01 0.56736466378E+01 0.47671601300E+01
 0.41378048914E+01 0.37430909273E+01 0.35525571344E+01 0.35525379840E+01 0.37430397207E+01
 0.41377352424E+01 0.47670846956E+01 0.56735741514E+01 0.66708728438E+01 0.83841582285E+01
 0.10300040652E+02 0.12210338631E+02 0.13849770490E+02 0.14959154402E+02 0.15350989254E+02
 0.14959120532E+02 0.13849716130E+02 0.12210283105E+02 0.10299999327E+02 0.83841359038E+01
 0.66708632322E+01 0.52749943200E+01 0.42205989401E+01 0.34736186089E+01 0.29819071329E+01
 0.27027663610E+01 0.26121516875E+01 0.27027873799E+01 0.29819393036E+01 0.34736484302E+01
 0.42206177357E+01 0.52750034531E+01 0.68873640520E+01 0.88578763635E+01 0.11046586826E+02
 0.13185342759E+02 0.14916563705E+02 0.15891053269E+02 0.15891007864E+02 0.14916442816E+02
 0.13185186497E+02 0.11046441611E+02 0.88577700214E+01 0.68872925483E+01 0.52749943200E+01
 0.40486245119E+01 0.31678519282E+01 0.25697506808E+01 0.21994147856E+01 0.20220098336E+01
 0.20220453339E+01 0.21995066236E+01 0.25698649610E+01 0.31679563134E+01 0.40487041087E+01
 0.52750570720E+01 0.75670218393E+01 0.98452130019E+01 0.12300474956E+02 0.14563382215E+02
 0.16180364870E+02 0.16769381139E+02 0.16180290378E+02 0.14563259150E+02 0.12300346629E+02
 0.98451166209E+01 0.75669635304E+01 0.56736466378E+01 0.42205989401E+01 0.31678519282E+01
 0.24402762639E+01 0.19675590354E+01 0.17010328400E+01 0.16148132152E+01 0.17011163543E+01
 0.19676907019E+01 0.24404101914E+01 0.31679561560E+01 0.42206655165E+01 0.56736925070E+01
 0.87809120844E+01 0.11392498343E+02 0.14047659947E+02 0.16264346717E+02 0.17536621668E+02
 0.17536624091E+02 0.16264354173E+02 0.14047677142E+02 0.11392533918E+02 0.87809635947E+01
 0.65309672790E+01 0.47671601300E+01 0.34736186089E+01 0.25697506808E+01 0.19675590354E+01
 0.15995050259E+01 0.14246231247E+01 0.14246559866E+01 0.15995863686E+01 0.19676519516E+01
 0.25698230185E+01 0.34736514999E+01 0.47671478830E+01 0.65309219453E+01 0.10578428657E+02
 0.13477082212E+02 0.16180125277E+02 0.18127009662E+02 0.18839093811E+02 0.18127108749E+02
 0.16180292745E+02 0.13477278929E+02 0.10578620509E+02 0.79292391519E+01 0.57660432579E+01
 0.41378048914E+01 0.29819071329E+01 0.21994147856E+01 0.17010328400E+01 0.14246231247E+01
 0.13360281278E+01 0.14246307055E+01 0.17010381143E+01 0.21994104200E+01 0.29818875349E+01
 0.41377543389E+01 0.57659413840E+01 0.79290824206E+01 0.12879912112E+02 0.15890740515E+02
 0.18387347261E+02 0.19814324134E+02 0.19814402956E+02 0.18387553134E+02 0.15891004459E+02
 0.12880166867E+02 0.98925787491E+01 0.72951164739E+01 0.52458624503E+01 0.37430909273E+01
 0.27027663610E+01 0.20220098336E+01 0.16148132152E+01 0.14246559866E+01 0.14246307055E+01
 0.16147448680E+01 0.20219224312E+01 0.27026898744E+01 0.37430318623E+01 0.52457900354E+01
 0.72949887907E+01 0.98923787040E+01 0.15350773598E+02 0.18094249068E+02 0.19957121792E+02
 0.20612030865E+02 0.19957260241E+02 0.18094462746E+02 0.15350980947E+02 0.12270084345E+02
 0.93469937652E+01 0.68678423470E+01 0.49426508120E+01 0.35525571344E+01 0.26121516875E+01
 0.20220453339E+01 0.17011163543E+01 0.15995863686E+01 0.17010381143E+01 0.20219224312E+01
 0.26120416766E+01 0.35525058803E+01 0.49426525774E+01 0.68678427021E+01 0.93469344506E+01
 0.12269941444E+02 0.17004760607E+02 0.18564799100E+02 0.19277211535E+02 0.19277264110E+02
 0.18564923328E+02 0.17004882856E+02 0.14596891841E+02 0.11726488998E+02 0.89807625598E+01
 0.66495881207E+01 0.48426255248E+01 0.35525379840E+01 0.27027873799E+01 0.21995066236E+01
 0.19676907019E+01 0.19676519516E+01 0.21994104200E+01 0.27026898744E+01 0.35525058803E+01
 0.48426879033E+01 0.66497097626E+01 0.89808710072E+01 0.11726524610E+02 0.14596835623E+02
 0.15817746982E+02 0.15488480730E+02 0.15251462817E+02 0.15488545615E+02 0.15817826401E+02
 0.15438413723E+02 0.13862620752E+02 0.11394674321E+02 0.88496860450E+01 0.66495555661E+01
 0.49425752559E+01 0.37430397207E+01 0.29819393036E+01 0.25698649610E+01 0.24404101914E+01
 0.25698230185E+01 0.29818875349E+01 0.37430318623E+01 0.49426525774E+01 0.66497097626E+01
 0.88498609188E+01 0.11394805405E+02 0.13862670253E+02 0.15438380853E+02 0.10646930491E+02
 0.87785946014E+01 0.87786237873E+01 0.10646999815E+02 0.13038519369E+02 0.14274938642E+02
 0.13551056854E+02 0.11394744420E+02 0.89807806031E+01 0.68677584333E+01 0.52457384119E+01
 0.41377352424E+01 0.34736484302E+01 0.31679563134E+01 0.31679561560E+01 0.34736514999E+01
 0.41377543389E+01 0.52457900354E+01 0.68678427021E+01 0.89808710072E+01 0.11394805405E+02
 0.13551067948E+02 0.14274900283E+02 0.13038448873E+02 0.27103872161E+01 0.82266291055E+00
 0.27104209023E+01 0.72507191627E+01 0.11866083417E+02 0.14275056555E+02 0.13862843203E+02
 0.11726673478E+02 0.93470251787E+01 0.72950099918E+01 0.57659048949E+01 0.47670846956E+01
 0.42206177357E+01 0.40487041087E+01 0.42206655165E+01 0.47671478830E+01 0.57659413840E+01
 0.72949887907E+01 0.93469344506E+01 0.11726524610E+02 0.13862670253E+02 0.14274900283E+02
 0.11865968455E+02 0.72506480342E+01 -.45847945563E+01 -.45848096059E+01 0.22644044450E+00
 0.72507040554E+01 0.13038641113E+02 0.15438716693E+02 0.14597246305E+02 0.12270312675E+02
 0.98926096279E+01 0.79291355781E+01 0.65308397658E+01 0.56735741514E+01 0.52750034531E+01
 0.52750570720E+01 0.56736925070E+01 0.65309219453E+01 0.79290824206E+01 0.98923787040E+01
 0.12269941444E+02 0.14596835623E+02 0.15438380853E+02 0.13038448873E+02 0.72506480342E+01
 0.22645564644E+00 -.45849002460E+01 0.82245982365E+00 0.87784380129E+01 0.15488521821E+02
 0.18565092514E+02 0.18094721030E+02 0.15891222382E+02 0.13477396793E+02 0.11392559616E+02
 0.98450747294E+01 0.88576907112E+01 0.83840756340E+01 0.83841559411E+01 0.88578725560E+01
 0.98452105832E+01 0.11392497480E+02 0.13477081215E+02 0.15890740113E+02 0.18094251299E+02
 0.18564802944E+02 0.15488483277E+02 0.87785956191E+01 0.82266399747E+00 -.45848092409E+01
 0.82245982365E+00 0.75435912958E+01 0.14802490665E+02 0.19474421623E+02 0.20510987982E+02
 0.19020945562E+02 0.16769406048E+02 0.14564664552E+02 0.12745377661E+02 0.11434591185E+02
 0.10652687011E+02 0.10393410933E+02 0.10652815041E+02 0.11434760589E+02 0.12745457706E+02
 0.14564560680E+02 0.16769129568E+02 0.19020610577E+02 0.20510737841E+02 0.19474349101E+02
 0.14802597525E+02 0.75437889172E+01 0.82261106003E+00 -.19157545650E+01 0.87784380129E+01
 0.14802490665E+02 0.19728422496E+02 0.21803424553E+02 0.21259452901E+02 0.19527170523E+02
 0.17536550865E+02 0.15682652253E+02 0.14163083826E+02 0.13080870433E+02 0.12513765095E+02
 0.12513796087E+02 0.13080951831E+02 0.14163179210E+02 0.15682713040E+02 0.17536552650E+02
 0.19527134866E+02 0.21259425134E+02 0.21803437596E+02 0.19728484665E+02 0.14802587612E+02
 0.87785310352E+01 0.46240497929E+01 0.46240107290E+01 0.15488521821E+02 0.19474421623E+02
 0.21803424553E+02 0.22072484790E+02 0.21113059143E+02 0.19683564696E+02 0.18127056824E+02
 0.16638732782E+02 0.15364763882E+02 0.14473809727E+02 0.14146306078E+02 0.14473760272E+02
 0.15364718760E+02 0.16638752870E+02 0.18127170433E+02 0.19683759582E+02 0.21113285998E+02
 0.22072669478E+02 0.21803506944E+02 0.19474399467E+02 0.15488449929E+02 0.11638474266E+02
 0.10041891800E+02 0.11638529472E+02 0.18565092514E+02 0.20510987982E+02 0.21259452901E+02
 0.21113059143E+02 0.20469972759E+02 0.19527174312E+02 0.18387638174E+02 0.17139426777E+02
 0.15940280124E+02 0.15164486800E+02 0.15164398973E+02 0.15940078764E+02 0.17139252392E+02
 0.18387616248E+02 0.19527346832E+02 0.20470278618E+02 0.21113358340E+02 0.21259597451E+02
 0.20510915088E+02 0.18564868772E+02 0.16029723189E+02 0.14220529756E+02 0.14220622632E+02
 0.16029949295E+02 0.18094721030E+02 0.19020945562E+02 0.19527170523E+02 0.19683564696E+02
 0.19527174312E+02 0.19020945562E+02 0.18094717241E+02 0.16757015916E+02 0.15476558142E+02
 0.14941078371E+02 0.15476330120E+02 0.16756690428E+02 0.18094469348E+02 0.19020893642E+02
 0.19527322476E+02 0.19683801658E+02 0.19527326264E+02 0.19020893642E+02 0.18094465560E+02
 0.16756690428E+02 0.15476333909E+02 0.14941078371E+02 0.15476554354E+02 0.16757015916E+02
 0.15891222382E+02 0.16769406048E+02 0.17536550865E+02 0.18127056824E+02 0.18387638174E+02
 0.18094717241E+02 0.17005232205E+02 0.15438717058E+02 0.14275061430E+02 0.14274939660E+02
 0.15438412482E+02 0.17004886701E+02 0.18094468766E+02 0.18387552732E+02 0.18127103964E+02
 0.17536623228E+02 0.16769382509E+02 0.15891049462E+02 0.14959148326E+02 0.14108600933E+02
 0.13569769887E+02 0.13569864891E+02 0.14108840520E+02 0.14959416732E+02 0.13477396793E+02
 0.14564664552E+02 0.15682652253E+02 0.16638732782E+02 0.17139426777E+02 0.16757015916E+02
 0.15438717058E+02 0.13930758440E+02 0.13267841871E+02 0.13930604668E+02 0.15438474089E+02
 0.16756772063E+02 0.17139249174E+02 0.16638644058E+02 0.15682627612E+02 0.14564648065E+02
 0.13477338401E+02 0.12506737959E+02 0.11707154904E+02 0.11161459811E+02 0.10965076682E+02
 0.11161536728E+02 0.11707274044E+02 0.12506845880E+02 0.11392559616E+02 0.12745377661E+02
 0.14163083826E+02 0.15364763882E+02 0.15940280124E+02 0.15476558142E+02 0.14275061430E+02
 0.13267841871E+02 0.13267823599E+02 0.14275013067E+02 0.15476494314E+02 0.15940216393E+02
 0.15364714814E+02 0.14163061616E+02 0.12745386424E+02 0.11392592434E+02 0.10256360372E+02
 0.93830444315E+01 0.87836152720E+01 0.84748431974E+01 0.84748301749E+01 0.87835811074E+01
 0.93829997007E+01 0.10256315864E+02 0.98450747294E+01 0.11434591185E+02 0.13080870433E+02
 0.14473809727E+02 0.15164486800E+02 0.14941078371E+02 0.14274939660E+02 0.13930604668E+02
 0.14275013067E+02 0.14941198668E+02 0.15164616144E+02 0.14473919832E+02 0.13080956242E+02
 0.11434669461E+02 0.98451694983E+01 0.85114217717E+01 0.75023083059E+01 0.68090071527E+01
 0.64042891888E+01 0.62709622208E+01 0.64042099538E+01 0.68088758912E+01 0.75021646536E+01
 0.85112975713E+01 0.88576907112E+01 0.10652687011E+02 0.12513765095E+02 0.14146306078E+02
 0.15164398973E+02 0.15476330120E+02 0.15438412482E+02 0.15438474089E+02 0.15476494314E+02
 0.15164616144E+02 0.14146523710E+02 0.12513949264E+02 0.10652831589E+02 0.88578138720E+01
 0.73371526828E+01 0.61761844907E+01 0.53660003727E+01 0.48606888006E+01 0.46187808216E+01
 0.46187424019E+01 0.48605848961E+01 0.53658607278E+01 0.61760426130E+01 0.73370252610E+01
 0.83840756340E+01 0.10393410933E+02 0.12513796087E+02 0.14473760272E+02 0.15940078764E+02
 0.16756690428E+02 0.17004886701E+02 0.16756772063E+02 0.15940216393E+02 0.14473919832E+02
 0.12513949264E+02 0.10393539090E+02 0.83841732098E+01 0.66805963903E+01 0.53663976815E+01
 0.44314910397E+01 0.38210260374E+01 0.34788507614E+01 0.33687601177E+01 0.34788238048E+01
 0.38209752427E+01 0.44314261178E+01 0.53663283768E+01 0.66805199513E+01 0.83841559411E+01
 0.10652815041E+02 0.13080951831E+02 0.15364718760E+02 0.17139252392E+02 0.18094469348E+02
 0.18094468766E+02 0.17139249174E+02 0.15364714814E+02 0.13080956242E+02 0.10652831589E+02
 0.83841732098E+01 0.64715844387E+01 0.49901764435E+01 0.39213045875E+01 0.32004726071E+01
 0.27598363585E+01 0.25511709242E+01 0.25511879194E+01 0.27598771284E+01 0.32005174207E+01
 0.39213397527E+01 0.49901948642E+01 0.64715822914E+01 0.88578725560E+01 0.11434760589E+02
 0.14163179210E+02 0.16638752870E+02 0.18387616248E+02 0.19020893642E+02 0.18387552732E+02
 0.16638644058E+02 0.14163061616E+02 0.11434669461E+02 0.88578138720E+01 0.66805963903E+01
 0.49901764435E+01 0.37607288908E+01 0.29145976984E+01 0.23699845731E+01 0.20659152265E+01
 0.19681325906E+01 0.20659882505E+01 0.23700980560E+01 0.29147138741E+01 0.37608246891E+01
 0.49902446350E+01 0.66806465515E+01 0.98452105832E+01 0.12745457706E+02 0.15682713040E+02
 0.18127170433E+02 0.19527346832E+02 0.19527322476E+02 0.18127103964E+02 0.15682627612E+02
 0.12745386424E+02 0.98451694983E+01 0.73371526828E+01 0.53663976815E+01 0.39213045875E+01
 0.29145976984E+01 0.22471691068E+01 0.18412300104E+01 0.16489885379E+01 0.16490310908E+01
 0.18413368347E+01 0.22472968110E+01 0.29147110740E+01 0.39213856624E+01 0.53664436930E+01
 0.73371806806E+01 0.11392497480E+02 0.14564560680E+02 0.17536552650E+02 0.19683759582E+02
 0.20470278618E+02 0.19683801658E+02 0.17536623228E+02 0.14564648065E+02 0.11392592434E+02
 0.85114217717E+01 0.61761844907E+01 0.44314910397E+01 0.32004726071E+01 0.23699845731E+01
 0.18412300104E+01 0.15475107748E+01 0.14532331737E+01 0.15475560209E+01 0.18412966016E+01
 0.23700469678E+01 0.32005135062E+01 0.44314944151E+01 0.61761398918E+01 0.85113391414E+01
 0.13477081215E+02 0.16769129568E+02 0.19527134866E+02 0.21113285998E+02 0.21113358340E+02
 0.19527326264E+02 0.16769382509E+02 0.13477338401E+02 0.10256360372E+02 0.75023083059E+01
 0.53660003727E+01 0.38210260374E+01 0.27598363585E+01 0.20659152265E+01 0.16489885379E+01
 0.14532331737E+01 0.14532265685E+01 0.16489680024E+01 0.20658843121E+01 0.27598027177E+01
 0.38209829918E+01 0.53659186258E+01 0.75021593028E+01 0.10256143426E+02 0.15890740113E+02
 0.19020610577E+02 0.21259425134E+02 0.22072669478E+02 0.21259597451E+02 0.19020893642E+02
 0.15891049462E+02 0.12506737959E+02 0.93830444315E+01 0.68090071527E+01 0.48606888006E+01
 0.34788507614E+01 0.25511709242E+01 0.19681325906E+01 0.16490310908E+01 0.15475560209E+01
 0.16489680024E+01 0.19680292102E+01 0.25510658638E+01 0.34787709478E+01 0.48606200106E+01
 0.68089012459E+01 0.93828601498E+01 0.12506472197E+02 0.18094251299E+02 0.20510737841E+02
 0.21803437596E+02 0.21803506944E+02 0.20510915088E+02 0.18094465560E+02 0.14959148326E+02
 0.11707154904E+02 0.87836152720E+01 0.64042891888E+01 0.46187808216E+01 0.33687601177E+01
 0.25511879194E+01 0.20659882505E+01 0.18413368347E+01 0.18412966016E+01 0.20658843121E+01
 0.25510658638E+01 0.33686719133E+01 0.46187470422E+01 0.64042803526E+01 0.87835757328E+01
 0.11707044639E+02 0.14958966328E+02 0.18564802944E+02 0.19474349101E+02 0.19728484665E+02
 0.19474399467E+02 0.18564868772E+02 0.16756690428E+02 0.14108600933E+02 0.11161459811E+02
 0.84748431974E+01 0.62709622208E+01 0.46187424019E+01 0.34788238048E+01 0.27598771284E+01
 0.23700980560E+01 0.22472968110E+01 0.23700469678E+01 0.27598027177E+01 0.34787709478E+01
 0.46187470422E+01 0.62710251140E+01 0.84749295689E+01 0.11161524913E+02 0.14108615643E+02
 0.16756652259E+02 0.15488483277E+02 0.14802597525E+02 0.14802587612E+02 0.15488449929E+02
 0.16029723189E+02 0.15476333909E+02 0.13569769887E+02 0.10965076682E+02 0.84748301749E+01
 0.64042099538E+01 0.48605848961E+01 0.38209752427E+01 0.32005174207E+01 0.29147138741E+01
 0.29147110740E+01 0.32005135062E+01 0.38209829918E+01 0.48606200106E+01 0.64042803526E+01
 0.84749295689E+01 0.10965189110E+02 0.13569878190E+02 0.15476423821E+02 0.16029785415E+02
 0.87785956191E+01 0.75437889172E+01 0.87785310352E+01 0.11638474266E+02 0.14220529756E+02
 0.14941078371E+02 0.13569864891E+02 0.11161536728E+02 0.87835811074E+01 0.68088758912E+01
 0.53658607278E+01 0.44314261178E+01 0.39213397527E+01 0.37608246891E+01 0.39213856624E+01
 0.44314944151E+01 0.53659186258E+01 0.68089012459E+01 0.87835757328E+01 0.11161524913E+02
 0.13569878190E+02 0.14941135794E+02 0.14220624524E+02 0.11638574631E+02 0.82266399747E+00
 0.82261106003E+00 0.46240497929E+01 0.10041891800E+02 0.14220622632E+02 0.15476554354E+02
 0.14108840520E+02 0.11707274044E+02 0.93829997007E+01 0.75021646536E+01 0.61760426130E+01
 0.53663283768E+01 0.49901948642E+01 0.49902446350E+01 0.53664436930E+01 0.61761398918E+01
 0.75021593028E+01 0.93828601498E+01 0.11707044639E+02 0.14108615643E+02 0.15476423821E+02
 0.14220624524E+02 0.10041994962E+02 0.46241714056E+01 -.45848092409E+01 -.19157545650E+01
 0.46240107290E+01 0.11638529472E+02 0.16029949295E+02 0.16757015916E+02 0.14959416732E+02
 0.12506845880E+02 0.10256315864E+02 0.85112975713E+01 0.73370252610E+01 0.66805199513E+01
 0.64715822914E+01 0.66806465515E+01 0.73371806806E+01 0.85113391414E+01 0.10256143426E+02
 0.12506472197E+02 0.14958966328E+02 0.16756652259E+02 0.16029785415E+02 0.11638574631E+02
 0.46241714056E+01 -.19156212399E+01 0.27102780484E+01 0.87784350354E+01 0.15251356414E+02
 0.19277268306E+02 0.19957337231E+02 0.18387638985E+02 0.16180369720E+02 0.14047755509E+02
 0.12300406591E+02 0.11046436477E+02 0.10299926458E+02 0.10052574763E+02 0.10300035605E+02
 0.11046581504E+02 0.12300474063E+02 0.14047661864E+02 0.16180126170E+02 0.18387348749E+02
 0.19957126839E+02 0.19277216985E+02 0.15251463875E+02 0.87786219499E+01 0.27104199177E+01
 0.22643870021E+00 0.87784350354E+01 0.14802489023E+02 0.19728424074E+02 0.21803427562E+02
 0.21259455101E+02 0.19527172670E+02 0.17536553787E+02 0.15682653805E+02 0.14163082211E+02
 0.13080867498E+02 0.12513763076E+02 0.12513794159E+02 0.13080949072E+02 0.14163177694E+02
 0.15682714566E+02 0.17536555431E+02 0.19527136756E+02 0.21259427025E+02 0.21803440412E+02
 0.19728486270E+02 0.14802586124E+02 0.87785281800E+01 0.46240477214E+01 0.46240086198E+01
 0.15251356414E+02 0.19728424074E+02 0.22438785066E+02 0.22889167809E+02 0.21944846863E+02
 0.20469970549E+02 0.18839006017E+02 0.17266097697E+02 0.15913088553E+02 0.14958990788E+02
 0.14606505930E+02 0.14958968681E+02 0.15913090522E+02 0.17266175480E+02 0.18839182040E+02
 0.20470230227E+02 0.21945141132E+02 0.22889424115E+02 0.22438942472E+02 0.19728473296E+02
 0.15251340617E+02 0.10981952276E+02 0.92200460195E+01 0.10981976904E+02 0.19277268306E+02
 0.21803427562E+02 0.22889167809E+02 0.22830337467E+02 0.22160529723E+02 0.21113062152E+02
 0.19814374257E+02 0.18351682593E+02 0.16913812089E+02 0.15978725763E+02 0.15978662308E+02
 0.16913680840E+02 0.18351618452E+02 0.19814498161E+02 0.21113409737E+02 0.22161028539E+02
 0.22830834233E+02 0.22889502636E+02 0.21803524690E+02 0.19277178567E+02 0.16107857990E+02
 0.13882335209E+02 0.13882399535E+02 0.16107999640E+02 0.19957337231E+02 0.21259455101E+02
 0.21944846863E+02 0.22160529723E+02 0.21944851274E+02 0.21259458890E+02 0.19957339341E+02
 0.18082939648E+02 0.16320215818E+02 0.15590409422E+02 0.16320042709E+02 0.18082724204E+02
 0.19957259198E+02 0.21259631511E+02 0.21945266199E+02 0.22161048221E+02 0.21945270353E+02
 0.21259634917E+02 0.19957260984E+02 0.18082727737E+02 0.16320047028E+02 0.15590409501E+02
 0.16320211574E+02 0.18082935986E+02 0.18387638985E+02 0.19527172670E+02 0.20469970549E+02
 0.21113062152E+02 0.21259458890E+02 0.20510990129E+02 0.18565091646E+02 0.16029950847E+02
 0.14220624805E+02 0.14220526821E+02 0.16029717382E+02 0.18564866845E+02 0.20510916117E+02
 0.21259595936E+02 0.21113356077E+02 0.20470281398E+02 0.19527352511E+02 0.18387618138E+02
 0.17139251419E+02 0.15940080369E+02 0.15164401274E+02 0.15164483945E+02 0.15940274264E+02
 0.17139424668E+02 0.16180369720E+02 0.17536553787E+02 0.18839006017E+02 0.19814374257E+02
 0.19957339341E+02 0.18565091646E+02 0.15818013134E+02 0.13038643030E+02 0.11866086677E+02
 0.13038517452E+02 0.15817823141E+02 0.18564925245E+02 0.19957263501E+02 0.19814401039E+02
 0.18839090551E+02 0.17536623585E+02 0.16180368130E+02 0.14916561787E+02 0.13849767229E+02
 0.13113737074E+02 0.12847351653E+02 0.13113819804E+02 0.13849883142E+02 0.14916642663E+02
 0.14047755509E+02 0.15682653805E+02 0.17266097697E+02 0.18351682593E+02 0.18082939648E+02
 0.16029950847E+02 0.13038643030E+02 0.10842292434E+02 0.10842280555E+02 0.13038608116E+02
 0.16029897520E+02 0.18082878025E+02 0.18351623492E+02 0.17266047891E+02 0.15682617582E+02
 0.14047736656E+02 0.12608243158E+02 0.11467866252E+02 0.10671286031E+02 0.10257610356E+02
 0.10257607025E+02 0.10671277445E+02 0.11467858092E+02 0.12608244919E+02 0.12300406591E+02
 0.14163082211E+02 0.15913088553E+02 0.16913812089E+02 0.16320215818E+02 0.14220624805E+02
 0.11866086677E+02 0.10842280555E+02 0.11866177656E+02 0.14220761684E+02 0.16320339974E+02
 0.16913883802E+02 0.15913101258E+02 0.14163062726E+02 0.12300402319E+02 0.10651856499E+02
 0.93654421004E+01 0.84670856194E+01 0.79392377027E+01 0.77650929945E+01 0.79391641363E+01
 0.84669716752E+01 0.93653400962E+01 0.10651807285E+02 0.11046436477E+02 0.13080867498E+02
 0.14958990788E+02 0.15978725763E+02 0.15590409422E+02 0.14220526821E+02 0.13038517452E+02
 0.13038608116E+02 0.14220761684E+02 0.15590702222E+02 0.15978990747E+02 0.14959177532E+02
 0.13080973584E+02 0.11046503811E+02 0.92139757878E+01 0.77668698072E+01 0.67415536260E+01
 0.61003584357E+01 0.57943353089E+01 0.57942853763E+01 0.61002270717E+01 0.67413908552E+01
 0.77667328739E+01 0.92138885851E+01 0.10299926458E+02 0.12513763076E+02 0.14606505930E+02
 0.15978662308E+02 0.16320042709E+02 0.16029717382E+02 0.15817823141E+02 0.16029897520E+02
 0.16320339974E+02 0.15978990747E+02 0.14606795301E+02 0.12513975972E+02 0.10300065947E+02
 0.83008777862E+01 0.67010439500E+01 0.55444702451E+01 0.47886056589E+01 0.43680102531E+01
 0.42335987658E+01 0.43679383858E+01 0.47884835184E+01 0.55443366042E+01 0.67009290019E+01
 0.83007724593E+01 0.10052574763E+02 0.12513794159E+02 0.14958968681E+02 0.16913680840E+02
 0.18082724204E+02 0.18564866845E+02 0.18564925245E+02 0.18082878025E+02 0.16913883802E+02
 0.14959177532E+02 0.12513975972E+02 0.10052707138E+02 0.78636314097E+01 0.61070162520E+01
 0.48177595691E+01 0.39472191966E+01 0.34197941913E+01 0.31726922900E+01 0.31726831469E+01
 0.34197657808E+01 0.39471753772E+01 0.48177108116E+01 0.61069617500E+01 0.78635492431E+01
 0.10300035605E+02 0.13080949072E+02 0.15913090522E+02 0.18351618452E+02 0.19957259198E+02
 0.20510916117E+02 0.19957263501E+02 0.18351623492E+02 0.15913101258E+02 0.13080973584E+02
 0.10300065947E+02 0.78636314097E+01 0.59179851910E+01 0.44802774865E+01 0.34882713776E+01
 0.28546957498E+01 0.25050371834E+01 0.23934942717E+01 0.25050772681E+01 0.28547540403E+01
 0.34883262226E+01 0.44803170606E+01 0.59179999916E+01 0.78636171791E+01 0.11046581504E+02
 0.14163177694E+02 0.17266175480E+02 0.19814498161E+02 0.21259631511E+02 0.21259595936E+02
 0.19814401039E+02 0.17266047891E+02 0.14163062726E+02 0.11046503811E+02 0.83008777862E+01
 0.61070162520E+01 0.44802774865E+01 0.33435556540E+01 0.25934559808E+01 0.21412720378E+01
 0.19288429436E+01 0.19288836216E+01 0.21413738353E+01 0.25935774170E+01 0.33436647897E+01
 0.44803604966E+01 0.61070743592E+01 0.83009304695E+01 0.12300474063E+02 0.15682714566E+02
 0.18839182040E+02 0.21113409737E+02 0.21945266199E+02 0.21113356077E+02 0.18839090551E+02
 0.15682617582E+02 0.12300402319E+02 0.92139757878E+01 0.67010439500E+01 0.48177595691E+01
 0.34882713776E+01 0.25934559808E+01 0.20261048998E+01 0.17122350918E+01 0.16117420848E+01
 0.17123047690E+01 0.20262124224E+01 0.25935648431E+01 0.34883594957E+01 0.48178193611E+01
 0.67010831861E+01 0.92140192228E+01 0.14047661864E+02 0.17536555431E+02 0.20470230227E+02
 0.22161028539E+02 0.22161048221E+02 0.20470281398E+02 0.17536623585E+02 0.14047736656E+02
 0.10651856499E+02 0.77668698072E+01 0.55444702451E+01 0.39472191966E+01 0.28546957498E+01
 0.21412720378E+01 0.17122350918E+01 0.15104659416E+01 0.15104793186E+01 0.17122672624E+01
 0.21413080200E+01 0.28547246040E+01 0.39472310620E+01 0.55444532330E+01 0.77668202266E+01
 0.10651786004E+02 0.16180126170E+02 0.19527136756E+02 0.21945141132E+02 0.22830834233E+02
 0.21945270353E+02 0.19527352511E+02 0.16180368130E+02 0.12608243158E+02 0.93654421004E+01
 0.67415536260E+01 0.47886056589E+01 0.34197941913E+01 0.25050371834E+01 0.19288429436E+01
 0.16117420848E+01 0.15104793186E+01 0.16117082825E+01 0.19287860280E+01 0.25049752419E+01
 0.34197380286E+01 0.47885430189E+01 0.67414544472E+01 0.93652831704E+01 0.12608027284E+02
 0.18387348749E+02 0.21259427025E+02 0.22889424115E+02 0.22889502636E+02 0.21259634917E+02
 0.18387618138E+02 0.14916561787E+02 0.11467866252E+02 0.84670856194E+01 0.61003584357E+01
 0.43680102531E+01 0.31726922900E+01 0.23934942717E+01 0.19288836216E+01 0.17123047690E+01
 0.17122672624E+01 0.19287860280E+01 0.23933738126E+01 0.31725864781E+01 0.43679302357E+01
 0.61002789696E+01 0.84669633420E+01 0.11467672343E+02 0.14916305249E+02 0.19957126839E+02
 0.21803440412E+02 0.22438942472E+02 0.21803524690E+02 0.19957260984E+02 0.17139251419E+02
 0.13849767229E+02 0.10671286031E+02 0.79392377027E+01 0.57943353089E+01 0.42335987658E+01
 0.31726831469E+01 0.25050772681E+01 0.21413738353E+01 0.20262124224E+01 0.21413080200E+01
 0.25049752419E+01 0.31725864781E+01 0.42335367795E+01 0.57943088817E+01 0.79392202942E+01
 0.10671241290E+02 0.13849673273E+02 0.17139117635E+02 0.19277216985E+02 0.19728486270E+02
 0.19728473296E+02 0.19277178567E+02 0.18082727737E+02 0.15940080369E+02 0.13113737074E+02
 0.10257610356E+02 0.77650929945E+01 0.57942853763E+01 0.43679383858E+01 0.34197657808E+01
 0.28547540403E+01 0.25935774170E+01 0.25935648431E+01 0.28547246040E+01 0.34197380286E+01
 0.43679302357E+01 0.57943088817E+01 0.77651520967E+01 0.10257697135E+02 0.13113832692E+02