   2   2   1   0
  0.7414875E+01  0.2757716E-09  0.2757716E-09  0.2757716E-09  0.5000000E-15
  1.000000000000000E-004
  CAR 
 fcc Si                                  
     17.60047430     -8.20278310  301      5.73635157      1.00000000
     -8.203  0.0000E+00  0.0000E+00
     -8.117  0.0000E+00  0.0000E+00
     -8.031  0.0000E+00  0.0000E+00
     -7.945  0.0000E+00  0.0000E+00
     -7.859  0.0000E+00  0.0000E+00
     -7.773  0.0000E+00  0.0000E+00
     -7.687  0.0000E+00  0.0000E+00
     -7.601  0.0000E+00  0.0000E+00
     -7.515  0.0000E+00  0.0000E+00
     -7.429  0.0000E+00  0.0000E+00
     -7.343  0.0000E+00  0.0000E+00
     -7.257  0.0000E+00  0.0000E+00
     -7.171  0.0000E+00  0.0000E+00
     -7.085  0.0000E+00  0.0000E+00
     -6.999  0.0000E+00  0.0000E+00
     -6.913  0.0000E+00  0.0000E+00
     -6.827  0.0000E+00  0.0000E+00
     -6.741  0.0000E+00  0.0000E+00
     -6.655  0.0000E+00  0.0000E+00
     -6.569  0.0000E+00  0.0000E+00
     -6.483  0.0000E+00  0.0000E+00
     -6.397  0.0000E+00  0.0000E+00
     -6.311  0.0000E+00  0.0000E+00
     -6.225  0.0000E+00  0.0000E+00
     -6.139  0.7996E-03  0.2938E-04
     -6.053  0.1316E-02  0.1232E-03
     -5.967  0.1681E-02  0.2543E-03
     -5.880  0.2026E-02  0.4134E-03
     -5.794  0.2257E-02  0.5970E-03
     -5.708  0.2537E-02  0.8031E-03
     -5.622  0.2735E-02  0.1030E-02
     -5.536  0.2966E-02  0.1275E-02
     -5.450  0.3173E-02  0.1539E-02
     -5.364  0.3368E-02  0.1820E-02
     -5.278  0.3580E-02  0.2119E-02
     -5.192  0.3764E-02  0.2435E-02
     -5.106  0.3953E-02  0.2767E-02
     -5.020  0.4156E-02  0.3116E-02
     -4.934  0.4347E-02  0.3482E-02
     -4.848  0.4538E-02  0.3864E-02
     -4.762  0.4741E-02  0.4263E-02
     -4.676  0.4958E-02  0.4680E-02
     -4.590  0.5167E-02  0.5115E-02
     -4.504  0.5395E-02  0.5569E-02
     -4.418  0.5645E-02  0.6044E-02
     -4.332  0.5919E-02  0.6541E-02
     -4.246  0.6220E-02  0.7063E-02
     -4.160  0.6585E-02  0.7613E-02
     -4.074  0.7043E-02  0.8198E-02
     -3.988  0.7726E-02  0.8831E-02
     -3.902  0.8929E-02  0.9554E-02
     -3.816  0.8910E-02  0.1034E-01
     -3.730  0.8543E-02  0.1109E-01
     -3.644  0.8385E-02  0.1181E-01
     -3.558  0.7980E-02  0.1251E-01
     -3.472  0.7710E-02  0.1319E-01
     -3.386  0.7351E-02  0.1384E-01
     -3.300  0.7128E-02  0.1446E-01
     -3.214  0.6765E-02  0.1506E-01
     -3.128  0.6468E-02  0.1563E-01
     -3.042  0.6186E-02  0.1617E-01
     -2.956  0.5827E-02  0.1669E-01
     -2.870  0.5526E-02  0.1718E-01
     -2.784  0.5220E-02  0.1764E-01
     -2.698  0.4848E-02  0.1807E-01
     -2.612  0.4523E-02  0.1847E-01
     -2.526  0.4160E-02  0.1885E-01
     -2.440  0.3849E-02  0.1919E-01
     -2.354  0.3539E-02  0.1952E-01
     -2.268  0.2496E-02  0.1978E-01
     -2.182  0.1724E-02  0.1996E-01
     -2.096  0.6104E-06  0.2000E-01
     -2.010  0.2093E-03  0.2001E-01
     -1.924  0.7449E-03  0.2004E-01
     -1.838  0.1627E-02  0.2014E-01
     -1.752  0.3209E-02  0.2034E-01
     -1.666  0.3292E-02  0.2061E-01
     -1.580  0.3692E-02  0.2091E-01
     -1.494  0.4253E-02  0.2125E-01
     -1.408  0.4762E-02  0.2164E-01
     -1.322  0.5385E-02  0.2207E-01
     -1.236  0.6274E-02  0.2257E-01
     -1.150  0.1057E-01  0.2331E-01
     -1.064  0.2156E-01  0.2461E-01
     -0.978  0.1245E-01  0.2600E-01
     -0.892  0.9996E-02  0.2695E-01
     -0.806  0.8653E-02  0.2775E-01
     -0.720  0.7763E-02  0.2845E-01
     -0.634  0.7132E-02  0.2909E-01
     -0.548  0.6583E-02  0.2968E-01
     -0.462  0.6089E-02  0.3023E-01
     -0.376  0.5694E-02  0.3073E-01
     -0.290  0.5386E-02  0.3121E-01
     -0.204  0.5086E-02  0.3166E-01
     -0.118  0.4795E-02  0.3208E-01
     -0.032  0.4491E-02  0.3248E-01
      0.054  0.4296E-02  0.3286E-01
      0.140  0.4105E-02  0.3322E-01
      0.226  0.3912E-02  0.3357E-01
      0.312  0.3699E-02  0.3389E-01
      0.398  0.3483E-02  0.3420E-01
      0.484  0.3351E-02  0.3450E-01
      0.570  0.3219E-02  0.3478E-01
      0.656  0.3076E-02  0.3505E-01
      0.742  0.2930E-02  0.3531E-01
      0.828  0.2764E-02  0.3555E-01
      0.914  0.2640E-02  0.3578E-01
      1.000  0.2543E-02  0.3601E-01
      1.086  0.2445E-02  0.3622E-01
      1.172  0.2342E-02  0.3643E-01
      1.258  0.2219E-02  0.3662E-01
      1.344  0.2579E-02  0.3681E-01
      1.430  0.6094E-02  0.3722E-01
      1.516  0.8786E-02  0.3786E-01
      1.602  0.1395E-01  0.3874E-01
      1.688  0.1296E-01  0.3986E-01
      1.774  0.1144E-01  0.4092E-01
      1.860  0.1103E-01  0.4188E-01
      1.946  0.1026E-01  0.4280E-01
      2.033  0.9907E-02  0.4366E-01
      2.119  0.1098E-01  0.4455E-01
      2.205  0.1038E-01  0.4545E-01
      2.291  0.1086E-01  0.4636E-01
      2.377  0.1077E-01  0.4728E-01
      2.463  0.1141E-01  0.4823E-01
      2.549  0.1167E-01  0.4920E-01
      2.635  0.1213E-01  0.5022E-01
      2.721  0.1259E-01  0.5128E-01
      2.807  0.1438E-01  0.5245E-01
      2.893  0.1580E-01  0.5377E-01
      2.979  0.1531E-01  0.5510E-01
      3.065  0.1509E-01  0.5640E-01
      3.151  0.1479E-01  0.5769E-01
      3.237  0.1455E-01  0.5895E-01
      3.323  0.1420E-01  0.6018E-01
      3.409  0.1413E-01  0.6140E-01
      3.495  0.1384E-01  0.6261E-01
      3.581  0.1353E-01  0.6378E-01
      3.667  0.1334E-01  0.6494E-01
      3.753  0.1302E-01  0.6607E-01
      3.839  0.1292E-01  0.6719E-01
      3.925  0.1277E-01  0.6829E-01
      4.011  0.1250E-01  0.6938E-01
      4.097  0.1229E-01  0.7044E-01
      4.183  0.1212E-01  0.7149E-01
      4.269  0.1210E-01  0.7253E-01
      4.355  0.1191E-01  0.7357E-01
      4.441  0.1158E-01  0.7458E-01
      4.527  0.8941E-02  0.7546E-01
      4.613  0.7537E-02  0.7616E-01
      4.699  0.6630E-02  0.7677E-01
      4.785  0.5886E-02  0.7731E-01
      4.871  0.5135E-02  0.7778E-01
      4.957  0.4564E-02  0.7820E-01
      5.043  0.4050E-02  0.7857E-01
      5.129  0.3576E-02  0.7889E-01
      5.215  0.3072E-02  0.7918E-01
      5.301  0.2578E-02  0.7942E-01
      5.387  0.2253E-02  0.7963E-01
      5.473  0.1717E-02  0.7980E-01
      5.559  0.1172E-02  0.7993E-01
      5.645  0.3646E-03  0.8000E-01
      5.731  0.0000E+00  0.8000E-01
      5.817  0.0000E+00  0.8000E-01
      5.903  0.0000E+00  0.8000E-01
      5.989  0.0000E+00  0.8000E-01
      6.075  0.0000E+00  0.8000E-01
      6.161  0.0000E+00  0.8000E-01
      6.247  0.0000E+00  0.8000E-01
      6.333  0.8940E-05  0.8000E-01
      6.419  0.7812E-03  0.8003E-01
      6.505  0.1749E-02  0.8014E-01
      6.591  0.2371E-02  0.8032E-01
      6.677  0.3194E-02  0.8056E-01
      6.763  0.3728E-02  0.8086E-01
      6.849  0.4185E-02  0.8120E-01
      6.935  0.4635E-02  0.8158E-01
      7.021  0.5096E-02  0.8200E-01
      7.107  0.5589E-02  0.8246E-01
      7.193  0.6165E-02  0.8296E-01
      7.279  0.6862E-02  0.8352E-01
      7.365  0.7811E-02  0.8415E-01
      7.451  0.8752E-02  0.8487E-01
      7.537  0.9501E-02  0.8565E-01
      7.623  0.1045E-01  0.8651E-01
      7.709  0.1150E-01  0.8745E-01
      7.795  0.1281E-01  0.8849E-01
      7.881  0.1593E-01  0.8970E-01
      7.967  0.1744E-01  0.9115E-01
      8.053  0.1718E-01  0.9265E-01
      8.139  0.1594E-01  0.9410E-01
      8.225  0.1559E-01  0.9545E-01
      8.311  0.1378E-01  0.9672E-01
      8.397  0.1320E-01  0.9786E-01
      8.483  0.1190E-01  0.9895E-01
      8.569  0.1096E-01  0.9995E-01
      8.655  0.1115E-01  0.1009E+00
      8.741  0.1067E-01  0.1019E+00
      8.827  0.9173E-02  0.1027E+00
      8.913  0.9399E-02  0.1035E+00
      8.999  0.1306E-01  0.1044E+00
      9.085  0.2423E-01  0.1064E+00
      9.171  0.2145E-01  0.1084E+00
      9.257  0.1784E-01  0.1100E+00
      9.343  0.1711E-01  0.1115E+00
      9.429  0.1886E-01  0.1131E+00
      9.515  0.1797E-01  0.1147E+00
      9.601  0.1492E-01  0.1161E+00
      9.687  0.1369E-01  0.1174E+00
      9.773  0.1236E-01  0.1185E+00
      9.859  0.1121E-01  0.1194E+00
      9.946  0.1136E-01  0.1204E+00
     10.032  0.1106E-01  0.1214E+00
     10.118  0.1135E-01  0.1223E+00
     10.204  0.1252E-01  0.1233E+00
     10.290  0.1474E-01  0.1246E+00
     10.376  0.1287E-01  0.1258E+00
     10.462  0.1269E-01  0.1268E+00
     10.548  0.1332E-01  0.1280E+00
     10.634  0.1271E-01  0.1291E+00
     10.720  0.1164E-01  0.1301E+00
     10.806  0.1154E-01  0.1311E+00
     10.892  0.1125E-01  0.1321E+00
     10.978  0.1261E-01  0.1331E+00
     11.064  0.1171E-01  0.1342E+00
     11.150  0.1176E-01  0.1352E+00
     11.236  0.1188E-01  0.1362E+00
     11.322  0.1166E-01  0.1372E+00
     11.408  0.1086E-01  0.1382E+00
     11.494  0.1090E-01  0.1391E+00
     11.580  0.1046E-01  0.1400E+00
     11.666  0.9648E-02  0.1409E+00
     11.752  0.9789E-02  0.1417E+00
     11.838  0.1151E-01  0.1426E+00
     11.924  0.1000E-01  0.1435E+00
     12.010  0.9119E-02  0.1443E+00
     12.096  0.8471E-02  0.1451E+00
     12.182  0.8535E-02  0.1458E+00
     12.268  0.8726E-02  0.1466E+00
     12.354  0.9789E-02  0.1474E+00
     12.440  0.9499E-02  0.1482E+00
     12.526  0.9367E-02  0.1490E+00
     12.612  0.9486E-02  0.1498E+00
     12.698  0.8749E-02  0.1506E+00
     12.784  0.8057E-02  0.1513E+00
     12.870  0.7332E-02  0.1520E+00
     12.956  0.6918E-02  0.1526E+00
     13.042  0.6768E-02  0.1532E+00
     13.128  0.6747E-02  0.1538E+00
     13.214  0.6587E-02  0.1543E+00
     13.300  0.5937E-02  0.1549E+00
     13.386  0.5732E-02  0.1554E+00
     13.472  0.7919E-02  0.1559E+00
     13.558  0.5714E-02  0.1565E+00
     13.644  0.5103E-02  0.1570E+00
     13.730  0.4300E-02  0.1574E+00
     13.816  0.2972E-02  0.1577E+00
     13.902  0.2571E-02  0.1579E+00
     13.988  0.2470E-02  0.1581E+00
     14.074  0.2205E-02  0.1583E+00
     14.160  0.2218E-02  0.1585E+00
     14.246  0.2021E-02  0.1587E+00
     14.332  0.1769E-02  0.1589E+00
     14.418  0.1572E-02  0.1590E+00
     14.504  0.1422E-02  0.1591E+00
     14.590  0.1301E-02  0.1593E+00
     14.676  0.1228E-02  0.1594E+00
     14.762  0.1174E-02  0.1595E+00
     14.848  0.1124E-02  0.1596E+00
     14.934  0.9892E-03  0.1597E+00
     15.020  0.8488E-03  0.1597E+00
     15.106  0.6806E-03  0.1598E+00
     15.192  0.5433E-03  0.1599E+00
     15.278  0.4259E-03  0.1599E+00
     15.364  0.3285E-03  0.1599E+00
     15.450  0.2589E-03  0.1600E+00
     15.536  0.3098E-03  0.1600E+00
     15.622  0.0000E+00  0.1600E+00
     15.708  0.0000E+00  0.1600E+00
     15.794  0.0000E+00  0.1600E+00
     15.880  0.0000E+00  0.1600E+00
     15.966  0.0000E+00  0.1600E+00
     16.052  0.0000E+00  0.1600E+00
     16.138  0.0000E+00  0.1600E+00
     16.224  0.0000E+00  0.1600E+00
     16.310  0.0000E+00  0.1600E+00
     16.396  0.0000E+00  0.1600E+00
     16.482  0.0000E+00  0.1600E+00
     16.568  0.0000E+00  0.1600E+00
     16.654  0.0000E+00  0.1600E+00
     16.740  0.0000E+00  0.1600E+00
     16.826  0.0000E+00  0.1600E+00
     16.912  0.0000E+00  0.1600E+00
     16.998  0.0000E+00  0.1600E+00
     17.084  0.0000E+00  0.1600E+00
     17.170  0.0000E+00  0.1600E+00
     17.256  0.0000E+00  0.1600E+00
     17.342  0.0000E+00  0.1600E+00
     17.428  0.0000E+00  0.1600E+00
     17.514  0.0000E+00  0.1600E+00
     17.600  0.0000E+00  0.1600E+00
     17.60047430     -8.20278310  301      5.73635157      1.00000000
     -8.203  0.0000E+00  0.0000E+00  0.0000E+00  0.0000E+00  0.0000E+00  0.0000E+00  0.0000E+00  0.0000E+00  0.0000E+00
     -8.117  0.0000E+00  0.0000E+00  0.0000E+00  0.0000E+00  0.0000E+00  0.0000E+00  0.0000E+00  0.0000E+00  0.0000E+00
     -8.031  0.0000E+00  0.0000E+00  0.0000E+00  0.0000E+00  0.0000E+00  0.0000E+00  0.0000E+00  0.0000E+00  0.0000E+00
     -7.945  0.0000E+00  0.0000E+00  0.0000E+00  0.0000E+00  0.0000E+00  0.0000E+00  0.0000E+00  0.0000E+00  0.0000E+00
     -7.859  0.0000E+00  0.0000E+00  0.0000E+00  0.0000E+00  0.0000E+00  0.0000E+00  0.0000E+00  0.0000E+00  0.0000E+00
     -7.773  0.0000E+00  0.0000E+00  0.0000E+00  0.0000E+00  0.0000E+00  0.0000E+00  0.0000E+00  0.0000E+00  0.0000E+00
     -7.687  0.0000E+00  0.0000E+00  0.0000E+00  0.0000E+00  0.0000E+00  0.0000E+00  0.0000E+00  0.0000E+00  0.0000E+00
     -7.601  0.0000E+00  0.0000E+00  0.0000E+00  0.0000E+00  0.0000E+00  0.0000E+00  0.0000E+00  0.0000E+00  0.0000E+00
     -7.515  0.0000E+00  0.0000E+00  0.0000E+00  0.0000E+00  0.0000E+00  0.0000E+00  0.0000E+00  0.0000E+00  0.0000E+00
     -7.429  0.0000E+00  0.0000E+00  0.0000E+00  0.0000E+00  0.0000E+00  0.0000E+00  0.0000E+00  0.0000E+00  0.0000E+00
     -7.343  0.0000E+00  0.0000E+00  0.0000E+00  0.0000E+00  0.0000E+00  0.0000E+00  0.0000E+00  0.0000E+00  0.0000E+00
     -7.257  0.0000E+00  0.0000E+00  0.0000E+00  0.0000E+00  0.0000E+00  0.0000E+00  0.0000E+00  0.0000E+00  0.0000E+00
     -7.171  0.0000E+00  0.0000E+00  0.0000E+00  0.0000E+00  0.0000E+00  0.0000E+00  0.0000E+00  0.0000E+00  0.0000E+00
     -7.085  0.0000E+00  0.0000E+00  0.0000E+00  0.0000E+00  0.0000E+00  0.0000E+00  0.0000E+00  0.0000E+00  0.0000E+00
     -6.999  0.0000E+00  0.0000E+00  0.0000E+00  0.0000E+00  0.0000E+00  0.0000E+00  0.0000E+00  0.0000E+00  0.0000E+00
     -6.913  0.0000E+00  0.0000E+00  0.0000E+00  0.0000E+00  0.0000E+00  0.0000E+00  0.0000E+00  0.0000E+00  0.0000E+00
     -6.827  0.0000E+00  0.0000E+00  0.0000E+00  0.0000E+00  0.0000E+00  0.0000E+00  0.0000E+00  0.0000E+00  0.0000E+00
     -6.741  0.0000E+00  0.0000E+00  0.0000E+00  0.0000E+00  0.0000E+00  0.0000E+00  0.0000E+00  0.0000E+00  0.0000E+00
     -6.655  0.0000E+00  0.0000E+00  0.0000E+00  0.0000E+00  0.0000E+00  0.0000E+00  0.0000E+00  0.0000E+00  0.0000E+00
     -6.569  0.0000E+00  0.0000E+00  0.0000E+00  0.0000E+00  0.0000E+00  0.0000E+00  0.0000E+00  0.0000E+00  0.0000E+00
     -6.483  0.0000E+00  0.0000E+00  0.0000E+00  0.0000E+00  0.0000E+00  0.0000E+00  0.0000E+00  0.0000E+00  0.0000E+00
     -6.397  0.0000E+00  0.0000E+00  0.0000E+00  0.0000E+00  0.0000E+00  0.0000E+00  0.0000E+00  0.0000E+00  0.0000E+00
     -6.311  0.0000E+00  0.0000E+00  0.0000E+00  0.0000E+00  0.0000E+00  0.0000E+00  0.0000E+00  0.0000E+00  0.0000E+00
     -6.225  0.0000E+00  0.0000E+00  0.0000E+00  0.0000E+00  0.0000E+00  0.0000E+00  0.0000E+00  0.0000E+00  0.0000E+00
     -6.139  0.1706E-01  0.3414E-04  0.1514E-04  0.1514E-04  0.0000E+00  0.0000E+00  0.0000E+00  0.0000E+00  0.0000E+00
     -6.053  0.2801E-01  0.1313E-03  0.4583E-04  0.5528E-04  0.0000E+00  0.0000E+00  0.0000E+00  0.0000E+00  0.0000E+00
     -5.967  0.3572E-01  0.2685E-03  0.8155E-04  0.1129E-03  0.0000E+00  0.0000E+00  0.0000E+00  0.0000E+00  0.0000E+00
     -5.880  0.4300E-01  0.4385E-03  0.1186E-03  0.1639E-03  0.0000E+00  0.0000E+00  0.0000E+00  0.0000E+00  0.0000E+00
     -5.794  0.4782E-01  0.5971E-03  0.2034E-03  0.2459E-03  0.0000E+00  0.0000E+00  0.0000E+00  0.0000E+00  0.0000E+00
     -5.708  0.5367E-01  0.7950E-03  0.2684E-03  0.3135E-03  0.0000E+00  0.0000E+00  0.0000E+00  0.0000E+00  0.0000E+00
     -5.622  0.5776E-01  0.9704E-03  0.3987E-03  0.4051E-03  0.0000E+00  0.0000E+00  0.0000E+00  0.0000E+00  0.0000E+00
     -5.536  0.6254E-01  0.1215E-02  0.4598E-03  0.4967E-03  0.0000E+00  0.0000E+00  0.0000E+00  0.0000E+00  0.0000E+00
     -5.450  0.6682E-01  0.1457E-02  0.5696E-03  0.5890E-03  0.0000E+00  0.0000E+00  0.0000E+00  0.0000E+00  0.0000E+00
     -5.364  0.7082E-01  0.1717E-02  0.6807E-03  0.6905E-03  0.0000E+00  0.0000E+00  0.0000E+00  0.0000E+00  0.0000E+00
     -5.278  0.7520E-01  0.2024E-02  0.7423E-03  0.7934E-03  0.0000E+00  0.0000E+00  0.0000E+00  0.0000E+00  0.0000E+00
     -5.192  0.7897E-01  0.2317E-02  0.8710E-03  0.9066E-03  0.0000E+00  0.0000E+00  0.0000E+00  0.0000E+00  0.0000E+00
     -5.106  0.8285E-01  0.2566E-02  0.1061E-02  0.1016E-02  0.0000E+00  0.0000E+00  0.0000E+00  0.0000E+00  0.0000E+00
     -5.020  0.8705E-01  0.2911E-02  0.1157E-02  0.1125E-02  0.0000E+00  0.0000E+00  0.0000E+00  0.0000E+00  0.0000E+00
     -4.934  0.9099E-01  0.3256E-02  0.1288E-02  0.1253E-02  0.0000E+00  0.0000E+00  0.0000E+00  0.0000E+00  0.0000E+00
     -4.848  0.9494E-01  0.3543E-02  0.1514E-02  0.1375E-02  0.0000E+00  0.0000E+00  0.0000E+00  0.0000E+00  0.0000E+00
     -4.762  0.9917E-01  0.3895E-02  0.1686E-02  0.1493E-02  0.0000E+00  0.0000E+00  0.0000E+00  0.0000E+00  0.0000E+00
     -4.676  0.1037E+00  0.4318E-02  0.1796E-02  0.1615E-02  0.0000E+00  0.0000E+00  0.0000E+00  0.0000E+00  0.0000E+00
     -4.590  0.1081E+00  0.4735E-02  0.1976E-02  0.1763E-02  0.0000E+00  0.0000E+00  0.0000E+00  0.0000E+00  0.0000E+00
     -4.504  0.1129E+00  0.5128E-02  0.2207E-02  0.1898E-02  0.0000E+00  0.0000E+00  0.0000E+00  0.0000E+00  0.0000E+00
     -4.418  0.1183E+00  0.5578E-02  0.2402E-02  0.2030E-02  0.0000E+00  0.0000E+00  0.0000E+00  0.0000E+00  0.0000E+00
     -4.332  0.1241E+00  0.6114E-02  0.2554E-02  0.2177E-02  0.0000E+00  0.0000E+00  0.0000E+00  0.0000E+00  0.0000E+00
     -4.246  0.1307E+00  0.6665E-02  0.2783E-02  0.2350E-02  0.0000E+00  0.0000E+00  0.0000E+00  0.0000E+00  0.0000E+00
     -4.160  0.1387E+00  0.7176E-02  0.3130E-02  0.2528E-02  0.0000E+00  0.0000E+00  0.0000E+00  0.0000E+00  0.0000E+00
     -4.074  0.1488E+00  0.7789E-02  0.3473E-02  0.2735E-02  0.0000E+00  0.0000E+00  0.0000E+00  0.0000E+00  0.0000E+00
     -3.988  0.1640E+00  0.8617E-02  0.3871E-02  0.3044E-02  0.0000E+00  0.0000E+00  0.0000E+00  0.0000E+00  0.0000E+00
     -3.902  0.1909E+00  0.9794E-02  0.4588E-02  0.3583E-02  0.0000E+00  0.0000E+00  0.0000E+00  0.0000E+00  0.0000E+00
     -3.816  0.1904E+00  0.1028E-01  0.4907E-02  0.3499E-02  0.0000E+00  0.0000E+00  0.0000E+00  0.0000E+00  0.0000E+00
     -3.730  0.1821E+00  0.1058E-01  0.4888E-02  0.3261E-02  0.0000E+00  0.0000E+00  0.0000E+00  0.0000E+00  0.0000E+00
     -3.644  0.1786E+00  0.1113E-01  0.4931E-02  0.3119E-02  0.0000E+00  0.0000E+00  0.0000E+00  0.0000E+00  0.0000E+00
     -3.558  0.1695E+00  0.1138E-01  0.4908E-02  0.2849E-02  0.0000E+00  0.0000E+00  0.0000E+00  0.0000E+00  0.0000E+00
     -3.472  0.1635E+00  0.1163E-01  0.4917E-02  0.2658E-02  0.0000E+00  0.0000E+00  0.0000E+00  0.0000E+00  0.0000E+00
     -3.386  0.1555E+00  0.1182E-01  0.4839E-02  0.2422E-02  0.0000E+00  0.0000E+00  0.0000E+00  0.0000E+00  0.0000E+00
     -3.300  0.1506E+00  0.1218E-01  0.4771E-02  0.2237E-02  0.0000E+00  0.0000E+00  0.0000E+00  0.0000E+00  0.0000E+00
     -3.214  0.1426E+00  0.1230E-01  0.4649E-02  0.2008E-02  0.0000E+00  0.0000E+00  0.0000E+00  0.0000E+00  0.0000E+00
     -3.128  0.1361E+00  0.1239E-01  0.4548E-02  0.1809E-02  0.0000E+00  0.0000E+00  0.0000E+00  0.0000E+00  0.0000E+00
     -3.042  0.1299E+00  0.1248E-01  0.4425E-02  0.1617E-02  0.0000E+00  0.0000E+00  0.0000E+00  0.0000E+00  0.0000E+00
     -2.956  0.1220E+00  0.1252E-01  0.4230E-02  0.1394E-02  0.0000E+00  0.0000E+00  0.0000E+00  0.0000E+00  0.0000E+00
     -2.870  0.1155E+00  0.1247E-01  0.4061E-02  0.1214E-02  0.0000E+00  0.0000E+00  0.0000E+00  0.0000E+00  0.0000E+00
     -2.784  0.1088E+00  0.1237E-01  0.3860E-02  0.1042E-02  0.0000E+00  0.0000E+00  0.0000E+00  0.0000E+00  0.0000E+00
     -2.698  0.1007E+00  0.1216E-01  0.3632E-02  0.8408E-03  0.0000E+00  0.0000E+00  0.0000E+00  0.0000E+00  0.0000E+00
     -2.612  0.9368E-01  0.1195E-01  0.3395E-02  0.6800E-03  0.0000E+00  0.0000E+00  0.0000E+00  0.0000E+00  0.0000E+00
     -2.526  0.8583E-01  0.1158E-01  0.3081E-02  0.5189E-03  0.0000E+00  0.0000E+00  0.0000E+00  0.0000E+00  0.0000E+00
     -2.440  0.7902E-01  0.1143E-01  0.2770E-02  0.3757E-03  0.0000E+00  0.0000E+00  0.0000E+00  0.0000E+00  0.0000E+00
     -2.354  0.7202E-01  0.1144E-01  0.2331E-02  0.2239E-03  0.0000E+00  0.0000E+00  0.0000E+00  0.0000E+00  0.0000E+00
     -2.268  0.5056E-01  0.8280E-02  0.1714E-02  0.9995E-04  0.0000E+00  0.0000E+00  0.0000E+00  0.0000E+00  0.0000E+00
     -2.182  0.3515E-01  0.5208E-02  0.1762E-02  0.4030E-04  0.0000E+00  0.0000E+00  0.0000E+00  0.0000E+00  0.0000E+00
     -2.096  0.1173E-04  0.2947E-05  0.1972E-07  0.6779E-08  0.0000E+00  0.0000E+00  0.0000E+00  0.0000E+00  0.0000E+00
     -2.010  0.4032E-02  0.9942E-03  0.2284E-04  0.6165E-05  0.0000E+00  0.0000E+00  0.0000E+00  0.0000E+00  0.0000E+00
     -1.924  0.1439E-01  0.3450E-02  0.1718E-03  0.3356E-04  0.0000E+00  0.0000E+00  0.0000E+00  0.0000E+00  0.0000E+00
     -1.838  0.3152E-01  0.7220E-02  0.7011E-03  0.1059E-03  0.0000E+00  0.0000E+00  0.0000E+00  0.0000E+00  0.0000E+00
     -1.752  0.6267E-01  0.1264E-01  0.2962E-02  0.2554E-03  0.0000E+00  0.0000E+00  0.0000E+00  0.0000E+00  0.0000E+00
     -1.666  0.6366E-01  0.1335E-01  0.3031E-02  0.4512E-03  0.0000E+00  0.0000E+00  0.0000E+00  0.0000E+00  0.0000E+00
     -1.580  0.7102E-01  0.1482E-01  0.3856E-02  0.6490E-03  0.0000E+00  0.0000E+00  0.0000E+00  0.0000E+00  0.0000E+00
     -1.494  0.8100E-01  0.1706E-01  0.4888E-02  0.1041E-02  0.0000E+00  0.0000E+00  0.0000E+00  0.0000E+00  0.0000E+00
     -1.408  0.8980E-01  0.1900E-01  0.6021E-02  0.1490E-02  0.0000E+00  0.0000E+00  0.0000E+00  0.0000E+00  0.0000E+00
     -1.322  0.1001E+00  0.2138E-01  0.7469E-02  0.2206E-02  0.0000E+00  0.0000E+00  0.0000E+00  0.0000E+00  0.0000E+00
     -1.236  0.1144E+00  0.2463E-01  0.9682E-02  0.3419E-02  0.0000E+00  0.0000E+00  0.0000E+00  0.0000E+00  0.0000E+00
     -1.150  0.1656E+00  0.3906E-01  0.2241E-01  0.1493E-01  0.0000E+00  0.0000E+00  0.0000E+00  0.0000E+00  0.0000E+00
     -1.064  0.3132E+00  0.7573E-01  0.5330E-01  0.3961E-01  0.0000E+00  0.0000E+00  0.0000E+00  0.0000E+00  0.0000E+00
     -0.978  0.1863E+00  0.4520E-01  0.2950E-01  0.2120E-01  0.0000E+00  0.0000E+00  0.0000E+00  0.0000E+00  0.0000E+00
     -0.892  0.1510E+00  0.3691E-01  0.2355E-01  0.1667E-01  0.0000E+00  0.0000E+00  0.0000E+00  0.0000E+00  0.0000E+00
     -0.806  0.1311E+00  0.3244E-01  0.2042E-01  0.1444E-01  0.0000E+00  0.0000E+00  0.0000E+00  0.0000E+00  0.0000E+00
     -0.720  0.1178E+00  0.2953E-01  0.1837E-01  0.1298E-01  0.0000E+00  0.0000E+00  0.0000E+00  0.0000E+00  0.0000E+00
     -0.634  0.1083E+00  0.2749E-01  0.1697E-01  0.1199E-01  0.0000E+00  0.0000E+00  0.0000E+00  0.0000E+00  0.0000E+00
     -0.548  0.9976E-01  0.2566E-01  0.1584E-01  0.1121E-01  0.0000E+00  0.0000E+00  0.0000E+00  0.0000E+00  0.0000E+00
     -0.462  0.9195E-01  0.2400E-01  0.1484E-01  0.1054E-01  0.0000E+00  0.0000E+00  0.0000E+00  0.0000E+00  0.0000E+00
     -0.376  0.8573E-01  0.2273E-01  0.1400E-01  0.1002E-01  0.0000E+00  0.0000E+00  0.0000E+00  0.0000E+00  0.0000E+00
     -0.290  0.8087E-01  0.2179E-01  0.1333E-01  0.9606E-02  0.0000E+00  0.0000E+00  0.0000E+00  0.0000E+00  0.0000E+00
     -0.204  0.7605E-01  0.2085E-01  0.1268E-01  0.9230E-02  0.0000E+00  0.0000E+00  0.0000E+00  0.0000E+00  0.0000E+00
     -0.118  0.7133E-01  0.1990E-01  0.1208E-01  0.8870E-02  0.0000E+00  0.0000E+00  0.0000E+00  0.0000E+00  0.0000E+00
     -0.032  0.6639E-01  0.1883E-01  0.1151E-01  0.8485E-02  0.0000E+00  0.0000E+00  0.0000E+00  0.0000E+00  0.0000E+00
      0.054  0.6327E-01  0.1820E-01  0.1113E-01  0.8241E-02  0.0000E+00  0.0000E+00  0.0000E+00  0.0000E+00  0.0000E+00
      0.140  0.6016E-01  0.1760E-01  0.1071E-01  0.8017E-02  0.0000E+00  0.0000E+00  0.0000E+00  0.0000E+00  0.0000E+00
      0.226  0.5700E-01  0.1700E-01  0.1028E-01  0.7793E-02  0.0000E+00  0.0000E+00  0.0000E+00  0.0000E+00  0.0000E+00
      0.312  0.5351E-01  0.1629E-01  0.9799E-02  0.7531E-02  0.0000E+00  0.0000E+00  0.0000E+00  0.0000E+00  0.0000E+00
      0.398  0.5001E-01  0.1553E-01  0.9355E-02  0.7242E-02  0.0000E+00  0.0000E+00  0.0000E+00  0.0000E+00  0.0000E+00
      0.484  0.4785E-01  0.1508E-01  0.9102E-02  0.7077E-02  0.0000E+00  0.0000E+00  0.0000E+00  0.0000E+00  0.0000E+00
      0.570  0.4570E-01  0.1463E-01  0.8840E-02  0.6915E-02  0.0000E+00  0.0000E+00  0.0000E+00  0.0000E+00  0.0000E+00
      0.656  0.4336E-01  0.1414E-01  0.8528E-02  0.6741E-02  0.0000E+00  0.0000E+00  0.0000E+00  0.0000E+00  0.0000E+00
      0.742  0.4098E-01  0.1363E-01  0.8192E-02  0.6558E-02  0.0000E+00  0.0000E+00  0.0000E+00  0.0000E+00  0.0000E+00
      0.828  0.3830E-01  0.1303E-01  0.7808E-02  0.6322E-02  0.0000E+00  0.0000E+00  0.0000E+00  0.0000E+00  0.0000E+00
      0.914  0.3633E-01  0.1258E-01  0.7546E-02  0.6143E-02  0.0000E+00  0.0000E+00  0.0000E+00  0.0000E+00  0.0000E+00
      1.000  0.3475E-01  0.1222E-01  0.7351E-02  0.6017E-02  0.0000E+00  0.0000E+00  0.0000E+00  0.0000E+00  0.0000E+00
      1.086  0.3316E-01  0.1184E-01  0.7156E-02  0.5887E-02  0.0000E+00  0.0000E+00  0.0000E+00  0.0000E+00  0.0000E+00
      1.172  0.3150E-01  0.1145E-01  0.6937E-02  0.5746E-02  0.0000E+00  0.0000E+00  0.0000E+00  0.0000E+00  0.0000E+00
      1.258  0.2955E-01  0.1103E-01  0.6601E-02  0.5559E-02  0.0000E+00  0.0000E+00  0.0000E+00  0.0000E+00  0.0000E+00
      1.344  0.2761E-01  0.1348E-01  0.8627E-02  0.7878E-02  0.0000E+00  0.0000E+00  0.0000E+00  0.0000E+00  0.0000E+00
      1.430  0.2829E-01  0.3434E-01  0.2535E-01  0.2710E-01  0.0000E+00  0.0000E+00  0.0000E+00  0.0000E+00  0.0000E+00
      1.516  0.2946E-01  0.5014E-01  0.3780E-01  0.4282E-01  0.0000E+00  0.0000E+00  0.0000E+00  0.0000E+00  0.0000E+00
      1.602  0.3282E-01  0.7525E-01  0.6597E-01  0.7386E-01  0.0000E+00  0.0000E+00  0.0000E+00  0.0000E+00  0.0000E+00
      1.688  0.3299E-01  0.6829E-01  0.6407E-01  0.6785E-01  0.0000E+00  0.0000E+00  0.0000E+00  0.0000E+00  0.0000E+00
      1.774  0.3240E-01  0.5964E-01  0.5843E-01  0.5857E-01  0.0000E+00  0.0000E+00  0.0000E+00  0.0000E+00  0.0000E+00
      1.860  0.3205E-01  0.5662E-01  0.5844E-01  0.5622E-01  0.0000E+00  0.0000E+00  0.0000E+00  0.0000E+00  0.0000E+00
      1.946  0.3150E-01  0.5303E-01  0.5553E-01  0.5143E-01  0.0000E+00  0.0000E+00  0.0000E+00  0.0000E+00  0.0000E+00
      2.033  0.3120E-01  0.5120E-01  0.5467E-01  0.4926E-01  0.0000E+00  0.0000E+00  0.0000E+00  0.0000E+00  0.0000E+00
      2.119  0.3105E-01  0.5438E-01  0.6245E-01  0.5829E-01  0.0000E+00  0.0000E+00  0.0000E+00  0.0000E+00  0.0000E+00
      2.205  0.3058E-01  0.5164E-01  0.6025E-01  0.5455E-01  0.0000E+00  0.0000E+00  0.0000E+00  0.0000E+00  0.0000E+00
      2.291  0.3002E-01  0.5285E-01  0.6449E-01  0.5909E-01  0.0000E+00  0.0000E+00  0.0000E+00  0.0000E+00  0.0000E+00
      2.377  0.2903E-01  0.5200E-01  0.6526E-01  0.5964E-01  0.0000E+00  0.0000E+00  0.0000E+00  0.0000E+00  0.0000E+00
      2.463  0.2792E-01  0.5214E-01  0.7220E-01  0.6695E-01  0.0000E+00  0.0000E+00  0.0000E+00  0.0000E+00  0.0000E+00
      2.549  0.2728E-01  0.5208E-01  0.7546E-01  0.7054E-01  0.0000E+00  0.0000E+00  0.0000E+00  0.0000E+00  0.0000E+00
      2.635  0.2678E-01  0.5274E-01  0.8007E-01  0.7593E-01  0.0000E+00  0.0000E+00  0.0000E+00  0.0000E+00  0.0000E+00
      2.721  0.2613E-01  0.5262E-01  0.8544E-01  0.8173E-01  0.0000E+00  0.0000E+00  0.0000E+00  0.0000E+00  0.0000E+00
      2.807  0.2520E-01  0.5231E-01  0.1042E+00  0.1019E+00  0.0000E+00  0.0000E+00  0.0000E+00  0.0000E+00  0.0000E+00
      2.893  0.2411E-01  0.5166E-01  0.1197E+00  0.1185E+00  0.0000E+00  0.0000E+00  0.0000E+00  0.0000E+00  0.0000E+00
      2.979  0.2301E-01  0.5162E-01  0.1153E+00  0.1153E+00  0.0000E+00  0.0000E+00  0.0000E+00  0.0000E+00  0.0000E+00
      3.065  0.2183E-01  0.5138E-01  0.1139E+00  0.1152E+00  0.0000E+00  0.0000E+00  0.0000E+00  0.0000E+00  0.0000E+00
      3.151  0.2087E-01  0.5089E-01  0.1116E+00  0.1147E+00  0.0000E+00  0.0000E+00  0.0000E+00  0.0000E+00  0.0000E+00
      3.237  0.2010E-01  0.5065E-01  0.1095E+00  0.1141E+00  0.0000E+00  0.0000E+00  0.0000E+00  0.0000E+00  0.0000E+00
      3.323  0.1922E-01  0.5041E-01  0.1064E+00  0.1126E+00  0.0000E+00  0.0000E+00  0.0000E+00  0.0000E+00  0.0000E+00
      3.409  0.1824E-01  0.5030E-01  0.1063E+00  0.1143E+00  0.0000E+00  0.0000E+00  0.0000E+00  0.0000E+00  0.0000E+00
      3.495  0.1724E-01  0.5003E-01  0.1039E+00  0.1133E+00  0.0000E+00  0.0000E+00  0.0000E+00  0.0000E+00  0.0000E+00
      3.581  0.1625E-01  0.4914E-01  0.1020E+00  0.1122E+00  0.0000E+00  0.0000E+00  0.0000E+00  0.0000E+00  0.0000E+00
      3.667  0.1508E-01  0.4821E-01  0.1008E+00  0.1131E+00  0.0000E+00  0.0000E+00  0.0000E+00  0.0000E+00  0.0000E+00
      3.753  0.1418E-01  0.4795E-01  0.9745E-01  0.1125E+00  0.0000E+00  0.0000E+00  0.0000E+00  0.0000E+00  0.0000E+00
      3.839  0.1338E-01  0.4847E-01  0.9670E-01  0.1129E+00  0.0000E+00  0.0000E+00  0.0000E+00  0.0000E+00  0.0000E+00
      3.925  0.1239E-01  0.4845E-01  0.9525E-01  0.1141E+00  0.0000E+00  0.0000E+00  0.0000E+00  0.0000E+00  0.0000E+00
      4.011  0.1141E-01  0.4763E-01  0.9245E-01  0.1144E+00  0.0000E+00  0.0000E+00  0.0000E+00  0.0000E+00  0.0000E+00
      4.097  0.1040E-01  0.4567E-01  0.9175E-01  0.1151E+00  0.0000E+00  0.0000E+00  0.0000E+00  0.0000E+00  0.0000E+00
      4.183  0.9342E-02  0.4412E-01  0.9105E-01  0.1165E+00  0.0000E+00  0.0000E+00  0.0000E+00  0.0000E+00  0.0000E+00
      4.269  0.8377E-02  0.4724E-01  0.8816E-01  0.1185E+00  0.0000E+00  0.0000E+00  0.0000E+00  0.0000E+00  0.0000E+00
      4.355  0.7252E-02  0.4664E-01  0.8686E-01  0.1190E+00  0.0000E+00  0.0000E+00  0.0000E+00  0.0000E+00  0.0000E+00
      4.441  0.6333E-02  0.4221E-01  0.9142E-01  0.1143E+00  0.0000E+00  0.0000E+00  0.0000E+00  0.0000E+00  0.0000E+00
      4.527  0.5655E-02  0.3576E-01  0.6786E-01  0.8697E-01  0.0000E+00  0.0000E+00  0.0000E+00  0.0000E+00  0.0000E+00
      4.613  0.5256E-02  0.3324E-01  0.5511E-01  0.7223E-01  0.0000E+00  0.0000E+00  0.0000E+00  0.0000E+00  0.0000E+00
      4.699  0.4728E-02  0.2924E-01  0.4926E-01  0.6307E-01  0.0000E+00  0.0000E+00  0.0000E+00  0.0000E+00  0.0000E+00
      4.785  0.4286E-02  0.2799E-01  0.4253E-01  0.5544E-01  0.0000E+00  0.0000E+00  0.0000E+00  0.0000E+00  0.0000E+00
      4.871  0.3451E-02  0.2381E-01  0.3787E-01  0.4884E-01  0.0000E+00  0.0000E+00  0.0000E+00  0.0000E+00  0.0000E+00
      4.957  0.2949E-02  0.2267E-01  0.3266E-01  0.4327E-01  0.0000E+00  0.0000E+00  0.0000E+00  0.0000E+00  0.0000E+00
      5.043  0.2384E-02  0.1930E-01  0.2983E-01  0.3888E-01  0.0000E+00  0.0000E+00  0.0000E+00  0.0000E+00  0.0000E+00
      5.129  0.2028E-02  0.1893E-01  0.2523E-01  0.3379E-01  0.0000E+00  0.0000E+00  0.0000E+00  0.0000E+00  0.0000E+00
      5.215  0.1548E-02  0.1587E-01  0.2207E-01  0.2943E-01  0.0000E+00  0.0000E+00  0.0000E+00  0.0000E+00  0.0000E+00