    2    2  100    1
  0.7414875E+01  0.2757716E-09  0.2757716E-09  0.2757716E-09  0.5000000E-15
  1.000000000000000E-004
  CAR 
 fcc Si                                  
      8    286      8
 
  0.0000000E+00  0.0000000E+00  0.0000000E+00  0.1079797E-03
    1       -6.202783   1.000000
    2        5.689749   1.000000
    3        5.689749   1.000000
    4        5.689961   1.000000
    5        8.258965   0.000000
    6        8.258965   0.000000
    7        8.259137   0.000000
    8        8.777779   0.000000
 
  0.4761905E-01 -0.1584127E-17  0.1885320E-17  0.8638376E-03
    1       -6.173430   1.000000
    2        5.354180   1.000000
    3        5.639439   1.000000
    4        5.639624   1.000000
    5        8.301461   0.000000
    6        8.332513   0.000000
    7        8.332673   0.000000
    8        9.020424   0.000000
 
  0.9523810E-01 -0.3168253E-17  0.3770641E-17  0.8638376E-03
    1       -6.085485   1.000000
    2        4.616182   1.000000
    3        5.507881   1.000000
    4        5.508064   1.000000
    5        8.237583   0.000000
    6        8.527649   0.000000
    7        8.527825   0.000000
    8        9.708079   0.000000
 
  0.1428571E+00 -0.3885018E-17 -0.3885018E-17  0.8638376E-03
    1       -5.940671   1.000000
    2        3.738974   1.000000
    3        5.331765   1.000000
    4        5.331943   1.000000
    5        8.069470   0.000000
    6        8.783299   0.000000
    7        8.783507   0.000000
    8       10.541803   0.000000
 
  0.1904762E+00  0.5459613E-17  0.5459613E-17  0.8638376E-03
    1       -5.740060   1.000000
    2        2.845667   1.000000
    3        5.144047   1.000000
    4        5.144251   1.000000
    5        7.884435   0.000000
    6        9.035903   0.000000
    7        9.036119   0.000000
    8       11.398162   0.000000
 
  0.2380952E+00  0.1411036E-16  0.2325673E-18  0.8638376E-03
    1       -5.486647   1.000000
    2        1.969855   1.000000
    3        4.966087   1.000000
    4        4.966285   1.000000
    5        7.698065   0.000000
    6        9.203649   0.000000
    7        9.203910   0.000000
    8       12.241252   0.000000
 
  0.2857143E+00  0.9577199E-17  0.9577199E-17  0.8638376E-03
    1       -5.185931   1.000000
    2        1.136103   1.000000
    3        4.809786   1.000000
    4        4.809977   1.000000
    5        7.530361   0.000000
    6        9.269515   0.000000
    7        9.269809   0.000000
    8       13.376472   0.000000
 
  0.3333333E+00  0.4697097E-17  0.4697097E-17  0.8638376E-03
    1       -4.847994   1.000000
    2        0.364175   1.000000
    3        4.681201   1.000000
    4        4.681388   1.000000
    5        7.390634   0.000000
    6        9.253932   0.000000
    7        9.254243   0.000000
    8       13.471371   0.000000
 
  0.3809524E+00  0.1091923E-16  0.1091923E-16  0.8638376E-03
    1       -4.494980   1.000000
    2       -0.320724   1.000000
    3        4.578334   1.000000
    4        4.578543   1.000000
    5        7.283350   0.000000
    6        9.189475   0.000000
    7        9.189851   0.000000
    8       13.511626   0.000000
 
  0.4285714E+00  0.6039125E-17  0.6039125E-17  0.8638376E-03
    1       -4.165774   1.000000
    2       -0.866226   1.000000
    3        4.513397   1.000000
    4        4.513591   1.000000
    5        7.255691   0.000000
    6        9.138014   0.000000
    7        9.138393   0.000000
    8       13.452896   0.000000
 
  0.4761905E+00  0.2822071E-16  0.4651346E-18  0.8638376E-03
    1       -3.948127   1.000000
    2       -1.197299   1.000000
    3        4.478174   1.000000
    4        4.478370   1.000000
    5        7.217304   0.000000
    6        9.104477   0.000000
    7        9.104869   0.000000
    8       13.398621   0.000000
 
  0.4761905E-01  0.4761905E-01  0.1980269E-17  0.6478782E-03
    1       -6.163625   1.000000
    2        5.420548   1.000000
    3        5.530032   1.000000
    4        5.530168   1.000000
    5        8.163998   0.000000
    6        8.467841   0.000000
    7        8.467961   0.000000
    8        9.038719   0.000000
 
  0.9523810E-01  0.4761905E-01  0.1972057E-17  0.2591513E-02
    1       -6.095186   1.000000
    2        4.832583   1.000000
    3        5.357838   1.000000
    4        5.479146   1.000000
    5        8.158447   0.000000
    6        8.541112   0.000000
    7        8.708639   0.000000
    8        9.539553   0.000000
 
  0.1428571E+00  0.4761905E-01  0.1515500E-17  0.2591513E-02
    1       -5.969330   1.000000
    2        4.010713   1.000000
    3        5.162653   1.000000
    4        5.360796   1.000000
    5        8.216661   0.000000
    6        8.530901   0.000000
    7        9.003727   0.000000
    8       10.298119   0.000000
 
  0.1904762E+00  0.4761905E-01  0.1033971E-16  0.2591513E-02
    1       -5.786885   1.000000
    2        3.131154   1.000000
    3        4.967964   1.000000
    4        5.189936   1.000000
    5        8.122137   0.000000
    6        8.692594   0.000000
    7        9.282713   0.000000
    8       11.047522   0.000000
 
  0.2380952E+00  0.4761905E-01  0.5459613E-17  0.2591513E-02
    1       -5.550766   1.000000
    2        2.255652   1.000000
    3        4.788976   1.000000
    4        5.000467   1.000000
    5        7.956700   0.000000
    6        8.896771   0.000000
    7        9.474817   0.000000
    8       11.640716   0.000000
 
  0.2857143E+00  0.4761905E-01  0.2325673E-18  0.2591513E-02
    1       -5.265896   1.000000
    2        1.411036   1.000000
    3        4.641361   1.000000
    4        4.808027   1.000000
    5        7.791354   0.000000
    6        9.026958   0.000000
    7        9.543516   0.000000
    8       12.092334   0.000000
 
  0.3333333E+00  0.4761905E-01  0.9577199E-17  0.2591513E-02
    1       -4.939062   1.000000
    2        0.620444   1.000000
    3        4.528471   1.000000
    4        4.637537   1.000000
    5        7.646619   0.000000
    6        9.070308   0.000000
    7        9.519751   0.000000
    8       12.579809   0.000000
 
  0.3809524E+00  0.4761905E-01  0.1579933E-16  0.2591513E-02
    1       -4.586677   1.000000
    2       -0.093869   1.000000
    3        4.451690   1.000000
    4        4.491619   1.000000
    5        7.530987   0.000000
    6        9.060605   0.000000
    7        9.438564   0.000000
    8       13.102083   0.000000
 
  0.4285714E+00  0.4761905E-01  0.1091923E-16  0.2591513E-02
    1       -4.241644   1.000000
    2       -0.691042   1.000000
    3        4.376215   1.000000
    4        4.412630   1.000000
    5        7.476964   0.000000
    6        9.043691   0.000000
    7        9.343223   0.000000
    8       13.431266   0.000000
 
  0.4761905E+00  0.4761905E-01  0.6039125E-17  0.2591513E-02
    1       -3.974316   1.000000
    2       -1.105823   1.000000
    3        4.291142   1.000000
    4        4.403287   1.000000
    5        7.440448   0.000000
    6        9.046065   0.000000
    7        9.249238   0.000000
    8       13.499227   0.000000
 
 -0.4761905E+00  0.4761905E-01 -0.2403450E-16  0.2591513E-02
    1       -3.893536   1.000000
    2       -1.224230   1.000000
    3        4.237585   1.000000
    4        4.434554   1.000000
    5        7.426557   0.000000
    6        9.075169   0.000000
    7        9.194301   0.000000
    8       13.507583   0.000000
 
 -0.4285714E+00  0.4761905E-01 -0.4651346E-18  0.2591513E-02
    1       -4.047845   1.000000
    2       -0.993592   1.000000
    3        4.221040   1.000000
    4        4.502198   1.000000
    5        7.450599   0.000000
    6        9.140935   0.000000
    7        9.173348   0.000000
    8       13.529024   0.000000
 
 -0.3809524E+00  0.4761905E-01 -0.6039125E-17  0.2591513E-02
    1       -4.352733   1.000000
    2       -0.507857   1.000000
    3        4.240242   1.000000
    4        4.598539   1.000000
    5        7.480298   0.000000
    6        9.175836   0.000000
    7        9.230776   0.000000
    8       13.500741   0.000000
 
 -0.3333333E+00  0.4761905E-01  0.8768932E-18  0.2591513E-02
    1       -4.705650   1.000000
    2        0.134658   1.000000
    3        4.295556   1.000000
    4        4.724830   1.000000
    5        7.558095   0.000000
    6        9.186425   0.000000
    7        9.329829   0.000000
    8       13.277355   0.000000
 
 -0.2857143E+00  0.4761905E-01 -0.4697097E-17  0.2591513E-02
    1       -5.052012   1.000000
    2        0.877494   1.000000
    3        4.390086   1.000000
    4        4.877319   1.000000
    5        7.683364   0.000000
    6        9.175275   0.000000
    7        9.401537   0.000000
    8       13.074207   0.000000
 
 -0.2380952E+00  0.4761905E-01 -0.9577199E-17  0.2591513E-02
    1       -5.365716   1.000000
    2        1.687908   1.000000
    3        4.524727   1.000000
    4        5.056944   1.000000
    5        7.837922   0.000000
    6        9.109275   0.000000
    7        9.404645   0.000000
    8       12.215315   0.000000
 
 -0.1904762E+00  0.4761905E-01 -0.5795120E-18  0.2591513E-02
    1       -5.635662   1.000000
    2        2.542971   1.000000
    3        4.691365   1.000000
    4        5.237384   1.000000
    5        8.012060   0.000000
    6        8.941306   0.000000
    7        9.270338   0.000000
    8       11.576891   0.000000
 
 -0.1428571E+00  0.4761905E-01 -0.7541281E-17  0.2591513E-02
    1       -5.853975   1.000000
    2        3.420583   1.000000
    3        4.887079   1.000000
    4        5.420477   1.000000
    5        8.193564   0.000000
    6        8.706620   0.000000
    7        9.024431   0.000000
    8       10.864083   0.000000
 
 -0.9523810E-01  0.4761905E-01  0.1456405E-17  0.2591513E-02
    1       -6.017670   1.000000
    2        4.275563   1.000000
    3        5.113550   1.000000
    4        5.570538   1.000000
    5        8.354643   0.000000
    6        8.484079   0.000000
    7        8.716159   0.000000
    8       10.101746   0.000000
 
 -0.4761905E-01  0.4761905E-01  0.3168253E-17  0.1295756E-02
    1       -6.124550   1.000000
    2        4.991804   1.000000
    3        5.370422   1.000000
    4        5.653221   1.000000
    5        8.340429   0.000000
    6        8.410451   0.000000
    7        8.445680   0.000000
    8        9.401560   0.000000
 
  0.9523810E-01  0.9523810E-01  0.3960539E-17  0.6478782E-03
    1       -6.046510   1.000000
    2        4.788515   1.000000
    3        5.160173   1.000000
    4        5.160298   1.000000
    5        7.922674   0.000000
    6        8.993100   0.000000
    7        8.993229   0.000000
    8        9.585799   0.000000
 
  0.1428571E+00  0.9523810E-01  0.2926154E-17  0.2591513E-02
    1       -5.939748   1.000000
    2        4.171154   1.000000
    3        4.946642   1.000000
    4        5.049375   1.000000
    5        7.873331   0.000000
    6        9.069506   0.000000
    7        9.315353   0.000000
    8       10.100694   0.000000
 
  0.1904762E+00  0.9523810E-01  0.1515500E-17  0.2591513E-02
    1       -5.775943   1.000000
    2        3.364915   1.000000
    3        4.744097   1.000000
    4        4.914245   1.000000
    5        7.971732   0.000000
    6        8.990397   0.000000
    7        9.630930   0.000000
    8       10.624156   0.000000
 
  0.2380952E+00  0.9523810E-01  0.1068666E-16  0.2591513E-02
    1       -5.558005   1.000000
    2        2.518289   1.000000
    3        4.564869   1.000000
    4        4.720257   1.000000
    5        8.076001   0.000000
    6        8.957314   0.000000
    7        9.859179   0.000000
    8       10.890239   0.000000
 
  0.2857143E+00  0.9523810E-01  0.5459613E-17  0.2591513E-02
    1       -5.288604   1.000000
    2        1.685240   1.000000
    3        4.416844   1.000000
    4        4.508515   1.000000
    5        8.078292   0.000000
    6        9.003021   0.000000
    7        9.969504   0.000000
    8       11.097131   0.000000
 
  0.3333333E+00  0.9523810E-01  0.2325673E-18  0.2591513E-02
    1       -4.974210   1.000000
    2        0.890650   1.000000
    3        4.304616   1.000000
    4        4.311173   1.000000
    5        8.005319   0.000000
    6        9.050066   0.000000
    7        9.961943   0.000000
    8       11.470004   0.000000
 
  0.3809524E+00  0.9523810E-01  0.2067943E-16  0.2591513E-02
    1       -4.628208   1.000000
    2        0.160074   1.000000
    3        4.112558   1.000000
    4        4.244913   1.000000
    5        7.920265   0.000000
    6        9.049151   0.000000
    7        9.862353   0.000000
    8       12.016198   0.000000
 
  0.4285714E+00  0.9523810E-01  0.1579933E-16  0.2591513E-02
    1       -4.275006   1.000000
    2       -0.477054   1.000000
    3        3.950121   1.000000
    4        4.219728   1.000000
    5        7.861930   0.000000
    6        9.034245   0.000000
    7        9.739300   0.000000
    8       12.667145   0.000000
 
  0.4761905E+00  0.9523810E-01  0.1091923E-16  0.2591513E-02
    1       -3.969369   1.000000
    2       -0.960722   1.000000
    3        3.818885   1.000000
    4        4.234246   1.000000
    5        7.824471   0.000000
    6        9.037921   0.000000
    7        9.617189   0.000000
    8       13.301895   0.000000
 
 -0.4761905E+00  0.9523810E-01 -0.1915440E-16  0.2591513E-02
    1       -3.813849   1.000000
    2       -1.186941   1.000000
    3        3.722248   1.000000
    4        4.288870   1.000000
    5        7.817110   0.000000
    6        9.068610   0.000000
    7        9.517288   0.000000
    8       13.697296   0.000000
 
 -0.4285714E+00  0.9523810E-01 -0.2403450E-16  0.2591513E-02
    1       -3.895967   1.000000
    2       -1.067230   1.000000
    3        3.663862   1.000000
    4        4.381240   1.000000
    5        7.839828   0.000000
    6        9.134011   0.000000
    7        9.446510   0.000000
    8       13.772505   0.000000
 
 -0.3809524E+00  0.9523810E-01 -0.1159024E-17  0.2591513E-02
    1       -4.165494   1.000000
    2       -0.654410   1.000000
    3        3.645383   1.000000
    4        4.505584   1.000000
    5        7.871712   0.000000
    6        9.234492   0.000000
    7        9.398187   0.000000
    8       13.583430   0.000000
 
 -0.3333333E+00  0.9523810E-01  0.5756994E-17  0.2591513E-02
    1       -4.511379   1.000000
    2       -0.059980   1.000000
    3        3.669833   1.000000
    4        4.655210   1.000000
    5        7.945540   0.000000
    6        9.352087   0.000000
    7        9.352575   0.000000
    8       13.440976   0.000000
 
 -0.2857143E+00  0.9523810E-01  0.8768932E-18  0.2591513E-02
    1       -4.863388   1.000000
    2        0.642983   1.000000
    3        3.741158   1.000000
    4        4.833538   1.000000
    5        8.056505   0.000000
    6        9.304736   0.000000
    7        9.468907   0.000000
    8       12.835012   0.000000
 
 -0.2380952E+00  0.9523810E-01 -0.4003208E-17  0.2591513E-02
    1       -5.189841   1.000000
    2        1.416275   1.000000
    3        3.860633   1.000000
    4        5.026602   1.000000
    5        8.197919   0.000000
    6        9.200175   0.000000
    7        9.501568   0.000000
    8       11.976588   0.000000
 
 -0.1904762E+00  0.9523810E-01 -0.9577199E-17  0.2591513E-02
    1       -5.475078   1.000000
    2        2.227676   1.000000
    3        4.033192   1.000000
    4        5.217382   1.000000
    5        8.354064   0.000000
    6        9.017602   0.000000
    7        9.384217   0.000000
    8       11.532936   0.000000
 
 -0.1428571E+00  0.9523810E-01 -0.2661180E-17  0.2591513E-02
    1       -5.710542   1.000000
    2        3.037789   1.000000
    3        4.271301   1.000000
    4        5.396435   1.000000
    5        8.509447   0.000000
    6        8.785925   0.000000
    7        9.105428   0.000000
    8       11.138416   0.000000
 
 -0.9523810E-01  0.9523810E-01  0.6336506E-17  0.1295756E-02
    1       -5.892283   1.000000
    2        3.759731   1.000000
    3        4.621399   1.000000
    4        5.528405   1.000000
    5        8.584047   0.000000
    6        8.588318   0.000000
    7        8.784848   0.000000
    8       10.650224   0.000000
 
  0.1428571E+00  0.1428571E+00  0.5940808E-17  0.6478782E-03
    1       -5.851909   1.000000
    2        4.015188   1.000000
    3        4.721042   1.000000
    4        4.721160   1.000000
    5        7.594002   0.000000
    6        9.673301   0.000000
    7        9.673442   0.000000
    8        9.967121   0.000000
 
  0.1904762E+00  0.1428571E+00  0.5788448E-17  0.2591513E-02
    1       -5.707495   1.000000
    2        3.436250   1.000000
    3        4.509823   1.000000
    4        4.552733   1.000000
    5        7.533465   0.000000
    6        9.656964   0.000000
    7       10.031648   0.000000
    8       10.253229   0.000000
 
  0.2380952E+00  0.1428571E+00  0.3944113E-17  0.2591513E-02
    1       -5.507190   1.000000
    2        2.694051   1.000000
    3        4.326064   1.000000
    4        4.360916   1.000000
    5        7.643849   0.000000
    6        9.540865   0.000000
    7       10.324124   0.000000
    8       10.364364   0.000000
 
  0.2857143E+00  0.1428571E+00  0.1276833E-16  0.2591513E-02
    1       -5.254534   1.000000
    2        1.912216   1.000000
    3        4.128940   1.000000
    4        4.174750   1.000000
    5        7.788820   0.000000
    6        9.528345   0.000000
    7       10.354732   0.000000
    8       10.486408   0.000000
 
  0.3333333E+00  0.1428571E+00  0.7888226E-17  0.2591513E-02
    1       -4.954477   1.000000
    2        1.140500   1.000000
    3        3.884966   1.000000
    4        4.067226   1.000000
    5        7.866448   0.000000
    6        9.580365   0.000000
    7       10.477440   0.000000
    8       10.512869   0.000000
 
  0.3809524E+00  0.1428571E+00  0.1480424E-16  0.2591513E-02
    1       -4.616930   1.000000
    2        0.412181   1.000000
    3        3.652984   1.000000
    4        4.002828   1.000000
    5        7.874645   0.000000
    6        9.573070   0.000000
    7       10.437923   0.000000
    8       10.893628   0.000000
 
  0.4285714E+00  0.1428571E+00  0.9577199E-17  0.2591513E-02
    1       -4.261689   1.000000
    2       -0.245187   1.000000
    3        3.444660   1.000000
    4        3.983053   1.000000
    5        7.857604   0.000000
    6        9.512949   0.000000
    7       10.291236   0.000000
    8       11.550693   0.000000
 
  0.4761905E+00  0.1428571E+00  0.4697097E-17  0.2591513E-02
    1       -3.930938   1.000000
    2       -0.778532   1.000000
    3        3.269337   1.000000
    4        4.005124   1.000000
    5        7.864724   0.000000
    6        9.474983   0.000000
    7       10.144851   0.000000
    8       12.315909   0.000000
 
 -0.4761905E+00  0.1428571E+00 -0.2537653E-16  0.2591513E-02
    1       -3.711635   1.000000
    2       -1.097964   1.000000
    3        3.132204   1.000000
    4        4.071202   1.000000
    5        7.900570   0.000000
    6        9.457642   0.000000
    7       10.011365   0.000000
    8       13.154859   0.000000
 
 -0.4285714E+00  0.1428571E+00 -0.3025663E-16  0.2591513E-02
    1       -3.714457   1.000000
    2       -1.091324   1.000000
    3        3.036814   1.000000
    4        4.177867   1.000000
    5        7.966886   0.000000
    6        9.468064   0.000000
    7        9.901653   0.000000
    8       13.861116   0.000000
 
 -0.3809524E+00  0.1428571E+00  0.2037442E-16  0.2591513E-02
    1       -3.937483   1.000000
    2       -0.764186   1.000000
    3        2.986273   1.000000
    4        4.319551   1.000000
    5        8.047878   0.000000
    6        9.508895   0.000000
    7        9.809932   0.000000
    8       13.671537   0.000000
 
 -0.3333333E+00  0.1428571E+00 -0.4651346E-18  0.2591513E-02
    1       -4.269013   1.000000
    2       -0.228311   1.000000
    3        2.987428   1.000000
    4        4.493092   1.000000
    5        8.175424   0.000000
    6        9.588816   0.000000
    7        9.733901   0.000000
    8       13.295327   0.000000
 
 -0.2857143E+00  0.1428571E+00 -0.6039125E-17  0.2591513E-02
    1       -4.623932   1.000000
    2        0.426745   1.000000
    3        3.045653   1.000000
    4        4.690535   1.000000
    5        8.320344   0.000000
    6        9.635325   0.000000
    7        9.669318   0.000000
    8       12.676128   0.000000
 
 -0.2380952E+00  0.1428571E+00 -0.1022534E-16  0.2591513E-02
    1       -4.960746   1.000000
    2        1.140395   1.000000
    3        3.169263   1.000000
    4        4.897518   1.000000
    5        8.471149   0.000000
    6        9.479849   0.000000
    7        9.693533   0.000000
    8       11.745668   0.000000
 
 -0.1904762E+00  0.1428571E+00  0.1265014E-16  0.2591513E-02
    1       -5.259675   1.000000
    2        1.867256   1.000000
    3        3.384788   1.000000
    4        5.104088   1.000000
    5        8.619069   0.000000
    6        9.254690   0.000000
    7        9.558209   0.000000
    8       11.401717   0.000000
 
 -0.1428571E+00  0.1428571E+00 -0.9577199E-17  0.1295756E-02
    1       -5.511353   1.000000
    2        2.526880   1.000000
    3        3.740027   1.000000
    4        5.282567   1.000000
    5        8.689879   0.000000
    6        9.000013   0.000000
    7        9.274976   0.000000
    8       11.263751   0.000000
 
  0.1904762E+00  0.1904762E+00  0.7921078E-17  0.6478782E-03
    1       -5.581357   1.000000
    2        3.191165   1.000000
    3        4.290348   1.000000
    4        4.290466   1.000000
    5        7.249467   0.000000
    6        9.698822   0.000000
    7       10.451065   0.000000
    8       10.451135   0.000000
 
  0.2380952E+00  0.1904762E+00  0.5354767E-17  0.2591513E-02
    1       -5.399342   1.000000
    2        2.657550   1.000000
    3        4.083534   1.000000
    4        4.098237   1.000000
    5        7.199785   0.000000
    6        9.438832   0.000000
    7       10.712596   0.000000
    8       10.810454   0.000000
 
  0.2857143E+00  0.1904762E+00  0.1088301E-16  0.2591513E-02
    1       -5.163844   1.000000
    2        1.997958   1.000000
    3        3.825750   1.000000
    4        3.942491   1.000000
    5        7.325325   0.000000
    6        9.308062   0.000000
    7       10.714362   0.000000
    8       11.052002   0.000000
 
  0.3333333E+00  0.1904762E+00  0.1276833E-16  0.2591513E-02
    1       -4.879217   1.000000
    2        1.299593   1.000000
    3        3.537831   1.000000
    4        3.826345   1.000000
    5        7.476674   0.000000
    6        9.410040   0.000000
    7       10.616176   0.000000
    8       11.139244   0.000000
 
  0.3809524E+00  0.1904762E+00  0.5459613E-17  0.2591513E-02
    1       -4.552866   1.000000
    2        0.610307   1.000000
    3        3.251367   1.000000
    4        3.757607   1.000000
    5        7.560541   0.000000
    6        9.798018   0.000000
    7       10.492749   0.000000
    8       11.098257   0.000000
 
  0.4285714E+00  0.1904762E+00  0.1411036E-16  0.2591513E-02
    1       -4.200056   1.000000
    2       -0.037508   1.000000
    3        2.988124   1.000000
    4        3.734693   1.000000
    5        7.588506   0.000000
    6       10.331172   0.000000
    7       10.445991   0.000000
    8       10.973907   0.000000
 
  0.4761905E+00  0.1904762E+00  0.9577199E-17  0.2591513E-02
    1       -3.852954   1.000000
    2       -0.594045   1.000000
    3        2.763369   1.000000
    4        3.757499   1.000000
    5        7.621116   0.000000
    6       10.283771   0.000000
    7       10.818363   0.000000
    8       11.191593   0.000000
 
 -0.4761905E+00  0.1904762E+00 -0.2049643E-16  0.2591513E-02
    1       -3.583410   1.000000
    2       -0.983375   1.000000
    3        2.577782   1.000000
    4        3.826247   1.000000
    5        7.675700   0.000000
    6       10.207636   0.000000
    7       10.649380   0.000000
    8       12.052207   0.000000
 
 -0.4285714E+00  0.1904762E+00 -0.2537653E-16  0.2591513E-02
    1       -3.506932   1.000000
    2       -1.084725   1.000000
    3        2.444011   1.000000
    4        3.937392   1.000000
    5        7.769386   0.000000
    6       10.184857   0.000000
    7       10.511933   0.000000
    8       12.997159   0.000000
 
 -0.3809524E+00  0.1904762E+00 -0.3025663E-16  0.2591513E-02
    1       -3.673077   1.000000
    2       -0.850496   1.000000
    3        2.364022   1.000000
    4        4.087070   1.000000
    5        7.906253   0.000000
    6       10.177875   0.000000
    7       10.382806   0.000000
    8       13.726591   0.000000
 
 -0.3333333E+00  0.1904762E+00 -0.2403450E-16  0.2591513E-02
    1       -3.984448   1.000000
    2       -0.382432   1.000000
    3        2.345400   1.000000
    4        4.270541   1.000000
    5        8.073217   0.000000
    6       10.186908   0.000000
    7       10.256145   0.000000
    8       12.928203   0.000000
 
 -0.2857143E+00  0.1904762E+00 -0.1159024E-17  0.2591513E-02
    1       -4.338601   1.000000
    2        0.201986   1.000000
    3        2.402851   1.000000
    4        4.477235   1.000000
    5        8.267105   0.000000
    6       10.099058   0.000000
    7       10.201689   0.000000
    8       12.170680   0.000000
 
 -0.2380952E+00  0.1904762E+00 -0.6039125E-17  0.2591513E-02
    1       -4.682742   1.000000
    2        0.825474   1.000000
    3        2.563995   1.000000
    4        4.699924   1.000000
    5        8.462544   0.000000
    6        9.869862   0.000000
    7       10.147714   0.000000
    8       11.595072   0.000000
 
 -0.1904762E+00  0.1904762E+00 -0.1091923E-16  0.1295756E-02
    1       -4.993593   1.000000
    2        1.402145   1.000000
    3        2.877471   1.000000
    4        4.917965   1.000000
    5        8.614954   0.000000
    6        9.566380   0.000000
    7        9.897511   0.000000
    8       11.352364   0.000000
 
  0.2380952E+00  0.2380952E+00  0.9901347E-17  0.6478782E-03
    1       -5.235507   1.000000
    2        2.343816   1.000000
    3        3.896991   1.000000
    4        3.897102   1.000000
    5        6.929735   0.000000
    6        9.055652   0.000000
    7       11.263943   0.000000
    8       11.264024   0.000000
 
  0.2857143E+00  0.2380952E+00  0.1558964E-16  0.2591513E-02
    1       -5.017414   1.000000
    2        1.849117   1.000000
    3        3.672837   1.000000
    4        3.732486   1.000000
    5        6.904388   0.000000
    6        8.779602   0.000000
    7       11.512284   0.000000
    8       11.616747   0.000000
 
  0.3333333E+00  0.2380952E+00  0.1070953E-16  0.2591513E-02
    1       -4.748623   1.000000
    2        1.274872   1.000000
    3        3.359715   1.000000
    4        3.609967   1.000000
    5        7.047856   0.000000
    6        8.701854   0.000000
    7       11.525563   0.000000
    8       11.809642   0.000000
 
  0.3809524E+00  0.2380952E+00  0.1033971E-16  0.2591513E-02
    1       -4.435159   1.000000
    2        0.668793   1.000000
    3        3.012759   1.000000
    4        3.530437   1.000000
    5        7.192983   0.000000
    6        8.897097   0.000000
    7       11.425093   0.000000
    8       11.824409   0.000000
 
  0.4285714E+00  0.2380952E+00  0.5112669E-17  0.2591513E-02
    1       -4.088611   1.000000
    2        0.072769   1.000000
    3        2.678118   1.000000
    4        3.500435   1.000000
    5        7.267415   0.000000
    6        9.384854   0.000000
    7       11.310346   0.000000
    8       11.727050   0.000000
 
  0.4761905E+00  0.2380952E+00  0.1411036E-16  0.2591513E-02
    1       -3.733737   1.000000
    2       -0.468286   1.000000
    3        2.382150   1.000000
    4        3.517047   1.000000
    5        7.321374   0.000000
    6       10.082782   0.000000
    7       11.234297   0.000000
    8       11.581913   0.000000
 
 -0.4761905E+00  0.2380952E+00 -0.1561632E-16  0.2591513E-02
    1       -3.425938   1.000000
    2       -0.893094   1.000000
    3        2.139156   1.000000
    4        3.581858   1.000000
    5        7.386667   0.000000
    6       10.873764   0.000000
    7       11.177980   0.000000
    8       11.416684   0.000000
 
 -0.4285714E+00  0.2380952E+00 -0.2049643E-16  0.2591513E-02
    1       -3.276611   1.000000
    2       -1.083607   1.000000
    3        1.958499   1.000000
    4        3.691128   1.000000
    5        7.486929   0.000000
    6       11.037085   0.000000
    7       11.246351   0.000000
    8       11.883515   0.000000
 
 -0.3809524E+00  0.2380952E+00 -0.2537653E-16  0.2591513E-02
    1       -3.379847   1.000000
    2       -0.944815   1.000000
    3        1.844907   1.000000
    4        3.841864   1.000000
    5        7.638639   0.000000
    6       11.008280   0.000000
    7       11.065547   0.000000
    8       12.872119   0.000000
 
 -0.3333333E+00  0.2380952E+00 -0.1915440E-16  0.2591513E-02
    1       -3.664903   1.000000
    2       -0.558117   1.000000
    3        1.815185   1.000000
    4        4.028301   1.000000
    5        7.827462   0.000000
    6       10.884728   0.000000
    7       10.970565   0.000000
    8       12.877710   0.000000
 
 -0.2857143E+00  0.2380952E+00 -0.2403450E-16  0.2591513E-02
    1       -4.014169   1.000000
    2       -0.066324   1.000000
    3        1.895495   1.000000
    4        4.240857   1.000000
    5        8.050100   0.000000
    6       10.639747   0.000000
    7       10.919021   0.000000
    8       12.106109   0.000000
 
 -0.2380952E+00  0.2380952E+00 -0.1159024E-17  0.1295756E-02
    1       -4.362843   1.000000
    2        0.420227   1.000000
    3        2.131507   1.000000
    4        4.471648   1.000000
    5        8.282223   0.000000
    6       10.288766   0.000000
    7       10.661493   0.000000
    8       11.638085   0.000000
 