       N       E                     dE             d eps       ncg     rms          rms(c)
DAV:   1     0.196763997325E+02    0.19676E+02   -0.28635E+03  5000   0.480E+02
DAV:   2     0.102194523462E+02   -0.94569E+01   -0.92914E+01  7168   0.684E+01
DAV:   3     0.101680500844E+02   -0.51402E-01   -0.51677E-01  5104   0.604E+00
DAV:   4     0.101679646274E+02   -0.85457E-04   -0.88710E-04  7888   0.198E-01
DAV:   5     0.101679646153E+02   -0.12185E-07   -0.12521E-07  4992   0.146E-03    0.144E+01
DAV:   6     0.110735868441E+02    0.90562E+00   -0.56242E-01  4888   0.454E+00    0.944E+00
DAV:   7     0.113789457337E+02    0.30536E+00   -0.53333E-01  6272   0.447E+00    0.199E+00
DAV:   8     0.113845559479E+02    0.56102E-02   -0.14786E-02  4888   0.956E-01    0.365E-01
DAV:   9     0.113846916704E+02    0.13572E-03   -0.29737E-04  6936   0.142E-01    0.210E-01
DAV:  10     0.113846894615E+02   -0.22089E-05   -0.18580E-05  2496   0.299E-02
   1 F= 0.11384689E+02 E0= 0.11384689E+02  d E =0.113847E+02
       N       E                     dE             d eps       ncg     rms          rms(c)
DAV:   1    -0.257253985189E+02   -0.37110E+02   -0.73138E+02  7880   0.777E+01    0.152E+01
DAV:   2    -0.157776935924E+02    0.99477E+01   -0.29097E+01  4616   0.283E+01    0.928E+00
DAV:   3    -0.191445457299E+01    0.13863E+02   -0.13640E+01  4576   0.161E+01    0.597E+00
DAV:   4    -0.137156622878E+01    0.54289E+00   -0.20117E+00  5584   0.560E+00    0.540E+00
DAV:   5    -0.164887703149E+01   -0.27731E+00   -0.72797E-01  4592   0.344E+00    0.106E+00
DAV:   6    -0.159145215530E+01    0.57425E-01   -0.95882E-02  4576   0.138E+00    0.126E+00
DAV:   7    -0.159800843676E+01   -0.65563E-02   -0.34436E-02  4576   0.833E-01    0.252E-01
DAV:   8    -0.159822141166E+01   -0.21297E-03   -0.19002E-03  5184   0.193E-01    0.567E-02
DAV:   9    -0.159836353557E+01   -0.14212E-03   -0.80360E-05  2288   0.504E-02    0.564E-03
DAV:  10    -0.159836858672E+01   -0.50511E-05   -0.48181E-06  2288   0.130E-02
   2 F= -.15983686E+01 E0= -.15983686E+01  d E =-.129831E+02
       N       E                     dE             d eps       ncg     rms          rms(c)
DAV:   1    -0.360994920272E+01   -0.20116E+01   -0.13643E+01  4576   0.169E+01    0.224E+00
DAV:   2    -0.335148768992E+01    0.25846E+00   -0.18092E-01  4576   0.185E+00    0.120E+00
DAV:   3    -0.320873222366E+01    0.14276E+00   -0.32757E-01  4576   0.239E+00    0.642E-01
DAV:   4    -0.320790210150E+01    0.83012E-03   -0.27824E-03  4592   0.314E-01    0.229E-01
DAV:   5    -0.320786343975E+01    0.38662E-04   -0.27053E-04  5720   0.791E-02
   3 F= -.32078634E+01 E0= -.32078634E+01  d E =-.145926E+02
       N       E                     dE             d eps       ncg     rms          rms(c)
DAV:   1    -0.488504343010E+01   -0.16771E+01   -0.11070E+01  4632   0.155E+01    0.229E+00
DAV:   2    -0.467399691939E+01    0.21105E+00   -0.15352E-01  4576   0.178E+00    0.119E+00
DAV:   3    -0.456012181047E+01    0.11388E+00   -0.25887E-01  4584   0.219E+00    0.587E-01
DAV:   4    -0.456003379748E+01    0.88013E-04   -0.16239E-03  4656   0.245E-01    0.304E-01
DAV:   5    -0.456015697662E+01   -0.12318E-03   -0.58798E-04  4640   0.128E-01    0.360E-02
DAV:   6    -0.456021230454E+01   -0.55328E-04   -0.34479E-05  2392   0.290E-02
   4 F= -.45602123E+01 E0= -.45602123E+01  d E =-.159449E+02
       N       E                     dE             d eps       ncg     rms          rms(c)
DAV:   1    -0.169324919605E+02   -0.12372E+02   -0.27659E+02  6112   0.961E+01    0.117E+01
DAV:   2    -0.124239692820E+02    0.45085E+01   -0.27837E+00  4864   0.815E+00    0.611E+00
DAV:   3    -0.101502328332E+02    0.22737E+01   -0.41061E+00  5592   0.970E+00    0.300E+00
DAV:   4    -0.101245815684E+02    0.25651E-01   -0.26344E-02  6224   0.116E+00    0.653E-01
DAV:   5    -0.101245438936E+02    0.37675E-04   -0.10042E-03  5056   0.176E-01    0.346E-02
DAV:   6    -0.101245642385E+02   -0.20345E-04   -0.19951E-05  3816   0.324E-02
   5 F= -.10124564E+02 E0= -.10124564E+02  d E =-.215093E+02
       N       E                     dE             d eps       ncg     rms          rms(c)
DAV:   1    -0.110533908621E+02   -0.92885E+00   -0.78724E+01  5536   0.547E+01    0.106E+01
DAV:   2    -0.976264914934E+01    0.12907E+01   -0.90238E-01  6336   0.596E+00    0.543E+00
DAV:   3    -0.912778520118E+01    0.63486E+00   -0.12092E+00  5136   0.579E+00    0.194E+00
DAV:   4    -0.912487708721E+01    0.29081E-02   -0.90355E-03  6248   0.804E-01    0.132E+00
DAV:   5    -0.911947347507E+01    0.54036E-02   -0.73496E-04  5496   0.210E-01    0.849E-02
DAV:   6    -0.911940980336E+01    0.63672E-04   -0.28797E-05  3256   0.308E-02
   6 F= -.91194098E+01 E0= -.91194098E+01  d E =-.205041E+02
       N       E                     dE             d eps       ncg     rms          rms(c)
DAV:   1    -0.114428577149E+02   -0.23234E+01   -0.30238E+01  6352   0.282E+01    0.605E+00
DAV:   2    -0.108767906357E+02    0.56607E+00   -0.40754E-01  5264   0.383E+00    0.362E+00
DAV:   3    -0.105751298407E+02    0.30166E+00   -0.62480E-01  5448   0.387E+00    0.686E-01
DAV:   4    -0.105755302090E+02   -0.40037E-03   -0.38055E-03  5584   0.460E-01    0.481E-01
DAV:   5    -0.105757568131E+02   -0.22660E-03   -0.17741E-03  5392   0.269E-01    0.410E-02
DAV:   6    -0.105757532681E+02    0.35450E-05   -0.98399E-06  4248   0.228E-02
   7 F= -.10575753E+02 E0= -.10575753E+02  d E =-.219604E+02
       N       E                     dE             d eps       ncg     rms          rms(c)
DAV:   1    -0.107132981907E+02   -0.13754E+00   -0.23742E+00  5616   0.851E+00    0.161E+00
DAV:   2    -0.106738837424E+02    0.39414E-01   -0.27953E-02  5776   0.990E-01    0.910E-01
DAV:   3    -0.106534568573E+02    0.20427E-01   -0.40750E-02  5368   0.101E+00    0.257E-01
DAV:   4    -0.106534640022E+02   -0.71449E-05   -0.22195E-04  5712   0.120E-01
   8 F= -.10653464E+02 E0= -.10653464E+02  d E =-.220382E+02
       N       E                     dE             d eps       ncg     rms          rms(c)
DAV:   1    -0.106585553427E+02   -0.50985E-02   -0.69864E-02  5704   0.145E+00    0.261E-01
DAV:   2    -0.106573460680E+02    0.12093E-02   -0.83654E-04  5632   0.171E-01    0.149E-01
DAV:   3    -0.106566967771E+02    0.64929E-03   -0.12405E-03  5472   0.175E-01    0.430E-02
DAV:   4    -0.106566945401E+02    0.22371E-05   -0.65887E-06  2336   0.208E-02
   9 F= -.10656695E+02 E0= -.10656695E+02  d E =-.220414E+02
