PROCAR lm decomposed
# of k-points:  286         # of bands:    8         # of ions:    2

 k-point     1 :    0.00000000 0.00000000 0.00000000     weight = 0.00010798

band     1 # energy   -6.20278310 # occ.  2.00000000
 
ion      s     py     pz     px    dxy    dyz    dz2    dxz  x2-y2    tot
    1  0.214  0.000  0.000  0.000  0.000  0.000  0.000  0.000  0.000  0.214
    2  0.214  0.000  0.000  0.000  0.000  0.000  0.000  0.000  0.000  0.214
tot    0.428  0.000  0.000  0.000  0.000  0.000  0.000  0.000  0.000  0.428
 
band     2 # energy    5.68974894 # occ.  2.00000000
 
ion      s     py     pz     px    dxy    dyz    dz2    dxz  x2-y2    tot
    1  0.000  0.000  0.113  0.113  0.000  0.000  0.000  0.000  0.000  0.226
    2  0.000  0.000  0.113  0.113  0.000  0.000  0.000  0.000  0.000  0.226
tot    0.000  0.000  0.226  0.226  0.000  0.000  0.000  0.000  0.000  0.452
 
band     3 # energy    5.68974895 # occ.  2.00000000
 
ion      s     py     pz     px    dxy    dyz    dz2    dxz  x2-y2    tot
    1  0.000  0.151  0.038  0.038  0.000  0.000  0.000  0.000  0.000  0.226
    2  0.000  0.151  0.038  0.038  0.000  0.000  0.000  0.000  0.000  0.226
tot    0.000  0.301  0.075  0.075  0.000  0.000  0.000  0.000  0.000  0.452
 
band     4 # energy    5.68996090 # occ.  2.00000000
 
ion      s     py     pz     px    dxy    dyz    dz2    dxz  x2-y2    tot
    1  0.000  0.075  0.075  0.075  0.000  0.000  0.000  0.000  0.000  0.226
    2  0.000  0.075  0.075  0.075  0.000  0.000  0.000  0.000  0.000  0.226
tot    0.000  0.151  0.151  0.151  0.000  0.000  0.000  0.000  0.000  0.452
 
band     5 # energy    8.25896502 # occ.  0.00000000
 
ion      s     py     pz     px    dxy    dyz    dz2    dxz  x2-y2    tot
    1  0.000  0.106  0.026  0.026  0.000  0.000  0.000  0.000  0.000  0.159
    2  0.000  0.106  0.026  0.026  0.000  0.000  0.000  0.000  0.000  0.159
tot    0.000  0.212  0.053  0.053  0.000  0.000  0.000  0.000  0.000  0.317
 
band     6 # energy    8.25896502 # occ.  0.00000000
 
ion      s     py     pz     px    dxy    dyz    dz2    dxz  x2-y2    tot
    1  0.000  0.000  0.079  0.079  0.000  0.000  0.000  0.000  0.000  0.159
    2  0.000  0.000  0.079  0.079  0.000  0.000  0.000  0.000  0.000  0.159
tot    0.000  0.000  0.159  0.159  0.000  0.000  0.000  0.000  0.000  0.317
 
band     7 # energy    8.25913651 # occ.  0.00000000
 
ion      s     py     pz     px    dxy    dyz    dz2    dxz  x2-y2    tot
    1  0.000  0.053  0.053  0.053  0.000  0.000  0.000  0.000  0.000  0.159
    2  0.000  0.053  0.053  0.053  0.000  0.000  0.000  0.000  0.000  0.159
tot    0.000  0.106  0.106  0.106  0.000  0.000  0.000  0.000  0.000  0.317
 
band     8 # energy    8.77777930 # occ.  0.00000000
 
ion      s     py     pz     px    dxy    dyz    dz2    dxz  x2-y2    tot
    1  0.352  0.000  0.000  0.000  0.000  0.000  0.000  0.000  0.000  0.352
    2  0.352  0.000  0.000  0.000  0.000  0.000  0.000  0.000  0.000  0.352
tot    0.703  0.000  0.000  0.000  0.000  0.000  0.000  0.000  0.000  0.703
 

 k-point     2 :    0.04761905-0.00000000 0.00000000     weight = 0.00086384

band     1 # energy   -6.17343016 # occ.  2.00000000
 
ion      s     py     pz     px    dxy    dyz    dz2    dxz  x2-y2    tot
    1  0.214  0.000  0.000  0.000  0.000  0.000  0.000  0.000  0.000  0.214
    2  0.214  0.000  0.000  0.000  0.000  0.000  0.000  0.000  0.000  0.214
tot    0.427  0.000  0.000  0.000  0.000  0.000  0.000  0.000  0.000  0.428
 
band     2 # energy    5.35418030 # occ.  2.00000000
 
ion      s     py     pz     px    dxy    dyz    dz2    dxz  x2-y2    tot
    1  0.022  0.069  0.069  0.069  0.000  0.000  0.000  0.000  0.000  0.228
    2  0.022  0.069  0.069  0.069  0.000  0.000  0.000  0.000  0.000  0.228
tot    0.043  0.137  0.137  0.137  0.000  0.000  0.000  0.000  0.000  0.455
 
band     3 # energy    5.63943905 # occ.  2.00000000
 
ion      s     py     pz     px    dxy    dyz    dz2    dxz  x2-y2    tot
    1  0.000  0.113  0.000  0.113  0.000  0.000  0.000  0.000  0.000  0.225
    2  0.000  0.113  0.000  0.113  0.000  0.000  0.000  0.000  0.000  0.225
tot    0.000  0.225  0.000  0.225  0.000  0.000  0.000  0.000  0.000  0.450
 
band     4 # energy    5.63962429 # occ.  2.00000000
 
ion      s     py     pz     px    dxy    dyz    dz2    dxz  x2-y2    tot
    1  0.000  0.038  0.150  0.038  0.000  0.000  0.000  0.000  0.000  0.225
    2  0.000  0.038  0.150  0.038  0.000  0.000  0.000  0.000  0.000  0.225
tot    0.000  0.075  0.300  0.075  0.000  0.000  0.000  0.000  0.000  0.450
 
band     5 # energy    8.30146060 # occ.  0.00000000
 
ion      s     py     pz     px    dxy    dyz    dz2    dxz  x2-y2    tot
    1  0.031  0.047  0.048  0.047  0.000  0.000  0.000  0.000  0.000  0.173
    2  0.031  0.047  0.048  0.047  0.000  0.000  0.000  0.000  0.000  0.173
tot    0.062  0.095  0.095  0.095  0.000  0.000  0.000  0.000  0.000  0.347
 
band     6 # energy    8.33251270 # occ.  0.00000000
 
ion      s     py     pz     px    dxy    dyz    dz2    dxz  x2-y2    tot
    1  0.000  0.080  0.000  0.080  0.000  0.000  0.000  0.000  0.000  0.160
    2  0.000  0.080  0.000  0.080  0.000  0.000  0.000  0.000  0.000  0.160
tot    0.000  0.160  0.000  0.160  0.000  0.000  0.000  0.000  0.000  0.320
 
band     7 # energy    8.33267252 # occ.  0.00000000
 
ion      s     py     pz     px    dxy    dyz    dz2    dxz  x2-y2    tot
    1  0.000  0.027  0.106  0.027  0.000  0.000  0.000  0.000  0.000  0.160
    2  0.000  0.027  0.106  0.027  0.000  0.000  0.000  0.000  0.000  0.160
tot    0.000  0.054  0.212  0.054  0.000  0.000  0.000  0.000  0.000  0.320
 
band     8 # energy    9.02042366 # occ.  0.00000000
 
ion      s     py     pz     px    dxy    dyz    dz2    dxz  x2-y2    tot
    1  0.301  0.011  0.011  0.011  0.000  0.000  0.000  0.000  0.000  0.333
    2  0.301  0.011  0.011  0.011  0.000  0.000  0.000  0.000  0.000  0.333
tot    0.602  0.021  0.021  0.021  0.000  0.000  0.000  0.000  0.000  0.667
 

 k-point     3 :    0.09523810-0.00000000 0.00000000     weight = 0.00086384

band     1 # energy   -6.08548509 # occ.  2.00000000
 
ion      s     py     pz     px    dxy    dyz    dz2    dxz  x2-y2    tot
    1  0.213  0.000  0.000  0.000  0.000  0.000  0.000  0.000  0.000  0.214
    2  0.213  0.000  0.000  0.000  0.000  0.000  0.000  0.000  0.000  0.214
tot    0.426  0.001  0.001  0.001  0.000  0.000  0.000  0.000  0.000  0.429
 
band     2 # energy    4.61618193 # occ.  2.00000000
 
ion      s     py     pz     px    dxy    dyz    dz2    dxz  x2-y2    tot
    1  0.051  0.059  0.059  0.059  0.000  0.000  0.000  0.000  0.000  0.228
    2  0.051  0.059  0.059  0.059  0.000  0.000  0.000  0.000  0.000  0.228
tot    0.103  0.118  0.118  0.118  0.000  0.000  0.000  0.000  0.000  0.457
 
band     3 # energy    5.50788092 # occ.  2.00000000
 
ion      s     py     pz     px    dxy    dyz    dz2    dxz  x2-y2    tot
    1  0.000  0.112  0.000  0.112  0.000  0.000  0.000  0.000  0.000  0.224
    2  0.000  0.112  0.000  0.112  0.000  0.000  0.000  0.000  0.000  0.224
tot    0.000  0.224  0.000  0.224  0.000  0.000  0.000  0.000  0.000  0.447
 
band     4 # energy    5.50806445 # occ.  2.00000000
 
ion      s     py     pz     px    dxy    dyz    dz2    dxz  x2-y2    tot
    1  0.000  0.037  0.149  0.037  0.000  0.000  0.000  0.000  0.000  0.224
    2  0.000  0.037  0.149  0.037  0.000  0.000  0.000  0.000  0.000  0.224
tot    0.000  0.075  0.298  0.075  0.000  0.000  0.000  0.000  0.000  0.447
 
band     5 # energy    8.23758273 # occ.  0.00000000
 
ion      s     py     pz     px    dxy    dyz    dz2    dxz  x2-y2    tot
    1  0.093  0.035  0.035  0.035  0.000  0.000  0.000  0.000  0.000  0.199
    2  0.093  0.035  0.035  0.035  0.000  0.000  0.000  0.000  0.000  0.199
tot    0.186  0.071  0.071  0.071  0.000  0.000  0.000  0.000  0.000  0.399
 
band     6 # energy    8.52764866 # occ.  0.00000000
 
ion      s     py     pz     px    dxy    dyz    dz2    dxz  x2-y2    tot
    1  0.000  0.081  0.000  0.081  0.000  0.000  0.000  0.000  0.000  0.162
    2  0.000  0.081  0.000  0.081  0.000  0.000  0.000  0.000  0.000  0.162
tot    0.000  0.162  0.000  0.162  0.000  0.000  0.000  0.000  0.000  0.324
 
band     7 # energy    8.52782544 # occ.  0.00000000
 
ion      s     py     pz     px    dxy    dyz    dz2    dxz  x2-y2    tot
    1  0.000  0.027  0.108  0.027  0.000  0.000  0.000  0.000  0.000  0.162
    2  0.000  0.027  0.108  0.027  0.000  0.000  0.000  0.000  0.000  0.162
tot    0.000  0.054  0.216  0.054  0.000  0.000  0.000  0.000  0.000  0.324
 
band     8 # energy    9.70807939 # occ.  0.00000000
 
ion      s     py     pz     px    dxy    dyz    dz2    dxz  x2-y2    tot
    1  0.215  0.029  0.029  0.029  0.000  0.000  0.000  0.000  0.000  0.302
    2  0.215  0.029  0.029  0.029  0.000  0.000  0.000  0.000  0.000  0.302
tot    0.430  0.058  0.058  0.058  0.000  0.000  0.000  0.000  0.000  0.604
 

 k-point     4 :    0.14285714-0.00000000-0.00000000     weight = 0.00086384

band     1 # energy   -5.94067137 # occ.  2.00000000
 
ion      s     py     pz     px    dxy    dyz    dz2    dxz  x2-y2    tot
    1  0.213  0.001  0.001  0.001  0.000  0.000  0.000  0.000  0.000  0.215
    2  0.213  0.001  0.001  0.001  0.000  0.000  0.000  0.000  0.000  0.215
tot    0.425  0.002  0.002  0.002  0.000  0.000  0.000  0.000  0.000  0.431
 
band     2 # energy    3.73897369 # occ.  2.00000000
 
ion      s     py     pz     px    dxy    dyz    dz2    dxz  x2-y2    tot
    1  0.071  0.052  0.052  0.052  0.000  0.000  0.000  0.000  0.000  0.226
    2  0.071  0.052  0.052  0.052  0.000  0.000  0.000  0.000  0.000  0.226
tot    0.142  0.103  0.103  0.103  0.000  0.000  0.000  0.000  0.000  0.453
 
band     3 # energy    5.33176497 # occ.  2.00000000
 
ion      s     py     pz     px    dxy    dyz    dz2    dxz  x2-y2    tot
    1  0.000  0.111  0.000  0.111  0.000  0.000  0.000  0.000  0.000  0.222
    2  0.000  0.111  0.000  0.111  0.000  0.000  0.000  0.000  0.000  0.222
tot    0.000  0.222  0.000  0.222  0.000  0.000  0.000  0.000  0.000  0.445
 
band     4 # energy    5.33194265 # occ.  2.00000000
 
ion      s     py     pz     px    dxy    dyz    dz2    dxz  x2-y2    tot
    1  0.000  0.037  0.148  0.037  0.000  0.000  0.000  0.000  0.000  0.222
    2  0.000  0.037  0.148  0.037  0.000  0.000  0.000  0.000  0.000  0.222
tot    0.000  0.074  0.297  0.074  0.000  0.000  0.000  0.000  0.000  0.445
 
band     5 # energy    8.06946988 # occ.  0.00000000
 
ion      s     py     pz     px    dxy    dyz    dz2    dxz  x2-y2    tot
    1  0.123  0.028  0.028  0.028  0.000  0.000  0.000  0.000  0.000  0.207
    2  0.123  0.028  0.028  0.028  0.000  0.000  0.000  0.000  0.000  0.207
tot    0.247  0.056  0.056  0.056  0.000  0.000  0.000  0.000  0.000  0.414
 
band     6 # energy    8.78329931 # occ.  0.00000000
 
ion      s     py     pz     px    dxy    dyz    dz2    dxz  x2-y2    tot
    1  0.000  0.081  0.000  0.081  0.000  0.000  0.000  0.000  0.000  0.163
    2  0.000  0.081  0.000  0.081  0.000  0.000  0.000  0.000  0.000  0.163
tot    0.000  0.163  0.000  0.163  0.000  0.000  0.000  0.000  0.000  0.326
 
band     7 # energy    8.78350712 # occ.  0.00000000
 
ion      s     py     pz     px    dxy    dyz    dz2    dxz  x2-y2    tot
    1  0.000  0.027  0.109  0.027  0.000  0.000  0.000  0.000  0.000  0.163
    2  0.000  0.027  0.109  0.027  0.000  0.000  0.000  0.000  0.000  0.163
tot    0.000  0.054  0.217  0.054  0.000  0.000  0.000  0.000  0.000  0.326
 
band     8 # energy   10.54180254 # occ.  0.00000000
 
ion      s     py     pz     px    dxy    dyz    dz2    dxz  x2-y2    tot
    1  0.171  0.039  0.039  0.039  0.000  0.000  0.000  0.000  0.000  0.289
    2  0.171  0.039  0.039  0.039  0.000  0.000  0.000  0.000  0.000  0.289
tot    0.342  0.078  0.078  0.078  0.000  0.000  0.000  0.000  0.000  0.577
 

 k-point     5 :    0.19047619 0.00000000 0.00000000     weight = 0.00086384

band     1 # energy   -5.74005972 # occ.  2.00000000
 
ion      s     py     pz     px    dxy    dyz    dz2    dxz  x2-y2    tot
    1  0.212  0.002  0.002  0.002  0.000  0.000  0.000  0.000  0.000  0.217
    2  0.212  0.002  0.002  0.002  0.000  0.000  0.000  0.000  0.000  0.217
tot    0.424  0.003  0.003  0.003  0.000  0.000  0.000  0.000  0.000  0.434
 
band     2 # energy    2.84566719 # occ.  2.00000000
 
ion      s     py     pz     px    dxy    dyz    dz2    dxz  x2-y2    tot
    1  0.085  0.046  0.046  0.046  0.000  0.000  0.000  0.000  0.000  0.224
    2  0.085  0.046  0.046  0.046  0.000  0.000  0.000  0.000  0.000  0.224
tot    0.170  0.093  0.093  0.093  0.000  0.000  0.000  0.000  0.000  0.448
 
band     3 # energy    5.14404672 # occ.  2.00000000
 
ion      s     py     pz     px    dxy    dyz    dz2    dxz  x2-y2    tot
    1  0.000  0.111  0.000  0.111  0.000  0.000  0.000  0.000  0.000  0.221
    2  0.000  0.111  0.000  0.111  0.000  0.000  0.000  0.000  0.000  0.221
tot    0.000  0.221  0.000  0.221  0.000  0.000  0.000  0.000  0.000  0.443
 
band     4 # energy    5.14425136 # occ.  2.00000000
 
ion      s     py     pz     px    dxy    dyz    dz2    dxz  x2-y2    tot
    1  0.000  0.037  0.148  0.037  0.000  0.000  0.000  0.000  0.000  0.221
    2  0.000  0.037  0.148  0.037  0.000  0.000  0.000  0.000  0.000  0.221
tot    0.000  0.074  0.295  0.074  0.000  0.000  0.000  0.000  0.000  0.443
 
band     5 # energy    7.88443507 # occ.  0.00000000
 
ion      s     py     pz     px    dxy    dyz    dz2    dxz  x2-y2    tot
    1  0.141  0.022  0.022  0.022  0.000  0.000  0.000  0.000  0.000  0.208
    2  0.141  0.022  0.022  0.022  0.000  0.000  0.000  0.000  0.000  0.208
tot    0.282  0.045  0.045  0.045  0.000  0.000  0.000  0.000  0.000  0.416
 
band     6 # energy    9.03590321 # occ.  0.00000000
 
ion      s     py     pz     px    dxy    dyz    dz2    dxz  x2-y2    tot
    1  0.000  0.080  0.000  0.080  0.000  0.000  0.000  0.000  0.000  0.161
    2  0.000  0.080  0.000  0.080  0.000  0.000  0.000  0.000  0.000  0.161
tot    0.000  0.161  0.000  0.161  0.000  0.000  0.000  0.000  0.000  0.321
 
band     7 # energy    9.03611905 # occ.  0.00000000
 
ion      s     py     pz     px    dxy    dyz    dz2    dxz  x2-y2    tot
    1  0.000  0.027  0.107  0.027  0.000  0.000  0.000  0.000  0.000  0.161
    2  0.000  0.027  0.107  0.027  0.000  0.000  0.000  0.000  0.000  0.161
tot    0.000  0.054  0.214  0.054  0.000  0.000  0.000  0.000  0.000  0.321
 
band     8 # energy   11.39816180 # occ.  0.00000000
 
ion      s     py     pz     px    dxy    dyz    dz2    dxz  x2-y2    tot
    1  0.142  0.046  0.046  0.046  0.000  0.000  0.000  0.000  0.000  0.280
    2  0.142  0.046  0.046  0.046  0.000  0.000  0.000  0.000  0.000  0.280
tot    0.284  0.092  0.092  0.092  0.000  0.000  0.000  0.000  0.000  0.559
 

 k-point     6 :    0.23809524 0.00000000 0.00000000     weight = 0.00086384

band     1 # energy   -5.48664705 # occ.  2.00000000
 
ion      s     py     pz     px    dxy    dyz    dz2    dxz  x2-y2    tot
    1  0.211  0.003  0.003  0.003  0.000  0.000  0.000  0.000  0.000  0.219
    2  0.211  0.003  0.003  0.003  0.000  0.000  0.000  0.000  0.000  0.219
tot    0.422  0.005  0.005  0.005  0.000  0.000  0.000  0.000  0.000  0.437
 
band     2 # energy    1.96985542 # occ.  2.00000000
 
ion      s     py     pz     px    dxy    dyz    dz2    dxz  x2-y2    tot
    1  0.095  0.042  0.042  0.042  0.000  0.000  0.000  0.000  0.000  0.221
    2  0.095  0.042  0.042  0.042  0.000  0.000  0.000  0.000  0.000  0.221
tot    0.191  0.084  0.084  0.084  0.000  0.000  0.000  0.000  0.000  0.442
 
band     3 # energy    4.96608746 # occ.  2.00000000
 
ion      s     py     pz     px    dxy    dyz    dz2    dxz  x2-y2    tot
    1  0.000  0.111  0.000  0.111  0.000  0.000  0.000  0.000  0.000  0.222
    2  0.000  0.111  0.000  0.111  0.000  0.000  0.000  0.000  0.000  0.222
tot    0.000  0.222  0.000  0.222  0.000  0.000  0.000  0.000  0.000  0.444
 
band     4 # energy    4.96628500 # occ.  2.00000000
 
ion      s     py     pz     px    dxy    dyz    dz2    dxz  x2-y2    tot
    1  0.000  0.037  0.148  0.037  0.000  0.000  0.000  0.000  0.000  0.222
    2  0.000  0.037  0.148  0.037  0.000  0.000  0.000  0.000  0.000  0.222
tot    0.000  0.074  0.296  0.074  0.000  0.000  0.000  0.000  0.000  0.444
 
band     5 # energy    7.69806486 # occ.  0.00000000
 
ion      s     py     pz     px    dxy    dyz    dz2    dxz  x2-y2    tot
    1  0.154  0.018  0.018  0.018  0.000  0.000  0.000  0.000  0.000  0.208
    2  0.154  0.018  0.018  0.018  0.000  0.000  0.000  0.000  0.000  0.208
tot    0.308  0.036  0.036  0.036  0.000  0.000  0.000  0.000  0.000  0.416
 
band     6 # energy    9.20364901 # occ.  0.00000000
 
ion      s     py     pz     px    dxy    dyz    dz2    dxz  x2-y2    tot
    1  0.000  0.076  0.000  0.076  0.000  0.000  0.000  0.000  0.000  0.151
    2  0.000  0.076  0.000  0.076  0.000  0.000  0.000  0.000  0.000  0.151
tot    0.000  0.151  0.000  0.151  0.000  0.000  0.000  0.000  0.000  0.303
 
band     7 # energy    9.20391017 # occ.  0.00000000
 
ion      s     py     pz     px    dxy    dyz    dz2    dxz  x2-y2    tot
    1  0.000  0.025  0.101  0.025  0.000  0.000  0.000  0.000  0.000  0.151
    2  0.000  0.025  0.101  0.025  0.000  0.000  0.000  0.000  0.000  0.151
tot    0.000  0.050  0.202  0.050  0.000  0.000  0.000  0.000  0.000  0.303
 
band     8 # energy   12.24125161 # occ.  0.00000000
 
ion      s     py     pz     px    dxy    dyz    dz2    dxz  x2-y2    tot
    1  0.113  0.052  0.052  0.052  0.000  0.000  0.000  0.000  0.000  0.268
    2  0.113  0.052  0.052  0.052  0.000  0.000  0.000  0.000  0.000  0.268
tot    0.225  0.104  0.104  0.104  0.000  0.000  0.000  0.000  0.000  0.536
 

 k-point     7 :    0.28571429 0.00000000 0.00000000     weight = 0.00086384

band     1 # energy   -5.18593053 # occ.  2.00000000
 
ion      s     py     pz     px    dxy    dyz    dz2    dxz  x2-y2    tot
    1  0.211  0.003  0.003  0.003  0.000  0.000  0.000  0.000  0.000  0.221
    2  0.211  0.003  0.003  0.003  0.000  0.000  0.000  0.000  0.000  0.221
tot    0.421  0.007  0.007  0.007  0.000  0.000  0.000  0.000  0.000  0.442
 
band     2 # energy    1.13610287 # occ.  2.00000000
 
ion      s     py     pz     px    dxy    dyz    dz2    dxz  x2-y2    tot
    1  0.103  0.038  0.038  0.038  0.000  0.000  0.000  0.000  0.000  0.218
    2  0.103  0.038  0.038  0.038  0.000  0.000  0.000  0.000  0.000  0.218
tot    0.205  0.077  0.077  0.077  0.000  0.000  0.000  0.000  0.000  0.436
 
band     3 # energy    4.80978589 # occ.  2.00000000
 
ion      s     py     pz     px    dxy    dyz    dz2    dxz  x2-y2    tot
    1  0.000  0.111  0.000  0.111  0.000  0.000  0.000  0.000  0.000  0.223
    2  0.000  0.111  0.000  0.111  0.000  0.000  0.000  0.000  0.000  0.223
tot    0.000  0.223  0.000  0.223  0.000  0.000  0.000  0.000  0.000  0.446
 
band     4 # energy    4.80997736 # occ.  2.00000000
 
ion      s     py     pz     px    dxy    dyz    dz2    dxz  x2-y2    tot
    1  0.000  0.037  0.149  0.037  0.000  0.000  0.000  0.000  0.000  0.223
    2  0.000  0.037  0.149  0.037  0.000  0.000  0.000  0.000  0.000  0.223
tot    0.000  0.074  0.297  0.074  0.000  0.000  0.000  0.000  0.000  0.446
 
band     5 # energy    7.53036148 # occ.  0.00000000
 
ion      s     py     pz     px    dxy    dyz    dz2    dxz  x2-y2    tot
    1  0.165  0.014  0.014  0.014  0.000  0.000  0.000  0.000  0.000  0.208
    2  0.165  0.014  0.014  0.014  0.000  0.000  0.000  0.000  0.000  0.208
tot    0.329  0.029  0.029  0.029  0.000  0.000  0.000  0.000  0.000  0.415
 
band     6 # energy    9.26951464 # occ.  0.00000000
 
ion      s     py     pz     px    dxy    dyz    dz2    dxz  x2-y2    tot
    1  0.000  0.069  0.000  0.069  0.000  0.000  0.000  0.000  0.000  0.138
    2  0.000  0.069  0.000  0.069  0.000  0.000  0.000  0.000  0.000  0.138
tot    0.000  0.138  0.000  0.138  0.000  0.000  0.000  0.000  0.000  0.276
 
band     7 # energy    9.26980872 # occ.  0.00000000
 
ion      s     py     pz     px    dxy    dyz    dz2    dxz  x2-y2    tot
    1  0.000  0.023  0.092  0.023  0.000  0.000  0.000  0.000  0.000  0.138
    2  0.000  0.023  0.092  0.023  0.000  0.000  0.000  0.000  0.000  0.138
tot    0.000  0.046  0.184  0.046  0.000  0.000  0.000  0.000  0.000  0.276
 
band     8 # energy   13.37647209 # occ.  0.00000000
 
ion      s     py     pz     px    dxy    dyz    dz2    dxz  x2-y2    tot
    1  0.000  0.013  0.000  0.013  0.000  0.000  0.000  0.000  0.000  0.026
    2  0.000  0.013  0.000  0.013  0.000  0.000  0.000  0.000  0.000  0.026
tot    0.000  0.026  0.000  0.026  0.000  0.000  0.000  0.000  0.000  0.052
 

 k-point     8 :    0.33333333 0.00000000 0.00000000     weight = 0.00086384

band     1 # energy   -4.84799413 # occ.  2.00000000
 
ion      s     py     pz     px    dxy    dyz    dz2    dxz  x2-y2    tot
    1  0.211  0.004  0.004  0.004  0.000  0.000  0.000  0.000  0.000  0.224
    2  0.211  0.004  0.004  0.004  0.000  0.000  0.000  0.000  0.000  0.224
tot    0.422  0.009  0.009  0.009  0.000  0.000  0.000  0.000  0.000  0.448
 
band     2 # energy    0.36417513 # occ.  2.00000000
 
ion      s     py     pz     px    dxy    dyz    dz2    dxz  x2-y2    tot
    1  0.107  0.036  0.036  0.036  0.000  0.000  0.000  0.000  0.000  0.214
    2  0.107  0.036  0.036  0.036  0.000  0.000  0.000  0.000  0.000  0.214
tot    0.214  0.071  0.071  0.071  0.000  0.000  0.000  0.000  0.000  0.428
 
band     3 # energy    4.68120099 # occ.  2.00000000
 
ion      s     py     pz     px    dxy    dyz    dz2    dxz  x2-y2    tot
    1  0.000  0.112  0.000  0.112  0.000  0.000  0.000  0.000  0.000  0.224
    2  0.000  0.112  0.000  0.112  0.000  0.000  0.000  0.000  0.000  0.224
tot    0.000  0.224  0.000  0.224  0.000  0.000  0.000  0.000  0.000  0.448
 
band     4 # energy    4.68138753 # occ.  2.00000000
 
ion      s     py     pz     px    dxy    dyz    dz2    dxz  x2-y2    tot
    1  0.000  0.037  0.149  0.037  0.000  0.000  0.000  0.000  0.000  0.224
    2  0.000  0.037  0.149  0.037  0.000  0.000  0.000  0.000  0.000  0.224
tot    0.000  0.075  0.299  0.075  0.000  0.000  0.000  0.000  0.000  0.448
 
band     5 # energy    7.39063404 # occ.  0.00000000
 
ion      s     py     pz     px    dxy    dyz    dz2    dxz  x2-y2    tot
    1  0.173  0.012  0.012  0.012  0.000  0.000  0.000  0.000  0.000  0.208
    2  0.173  0.012  0.012  0.012  0.000  0.000  0.000  0.000  0.000  0.208
tot    0.345  0.023  0.023  0.023  0.000  0.000  0.000  0.000  0.000  0.415
 
band     6 # energy    9.25393153 # occ.  0.00000000
 
ion      s     py     pz     px    dxy    dyz    dz2    dxz  x2-y2    tot
    1  0.000  0.062  0.000  0.062  0.000  0.000  0.000  0.000  0.000  0.124
    2  0.000  0.062  0.000  0.062  0.000  0.000  0.000  0.000  0.000  0.124
tot    0.000  0.124  0.000  0.124  0.000  0.000  0.000  0.000  0.000  0.248
 
band     7 # energy    9.25424324 # occ.  0.00000000
 
ion      s     py     pz     px    dxy    dyz    dz2    dxz  x2-y2    tot
    1  0.000  0.021  0.083  0.021  0.000  0.000  0.000  0.000  0.000  0.124
    2  0.000  0.021  0.083  0.021  0.000  0.000  0.000  0.000  0.000  0.124
tot    0.000  0.041  0.165  0.041  0.000  0.000  0.000  0.000  0.000  0.248
 
band     8 # energy   13.47137089 # occ.  0.00000000
 
ion      s     py     pz     px    dxy    dyz    dz2    dxz  x2-y2    tot
    1  0.019  0.046  0.046  0.046  0.000  0.000  0.000  0.000  0.000  0.157
    2  0.019  0.046  0.046  0.046  0.000  0.000  0.000  0.000  0.000  0.157
tot    0.037  0.092  0.092  0.092  0.000  0.000  0.000  0.000  0.000  0.314
 

 k-point     9 :    0.38095238 0.00000000 0.00000000     weight = 0.00086384

band     1 # energy   -4.49497977 # occ.  2.00000000
 
ion      s     py     pz     px    dxy    dyz    dz2    dxz  x2-y2    tot
    1  0.215  0.005  0.005  0.005  0.000  0.000  0.000  0.000  0.000  0.229
    2  0.215  0.005  0.005  0.005  0.000  0.000  0.000  0.000  0.000  0.229
tot    0.429  0.010  0.010  0.010  0.000  0.000  0.000  0.000  0.000  0.459
 
band     2 # energy   -0.32072394 # occ.  2.00000000
 
ion      s     py     pz     px    dxy    dyz    dz2    dxz  x2-y2    tot
    1  0.109  0.033  0.033  0.033  0.000  0.000  0.000  0.000  0.000  0.209
    2  0.109  0.033  0.033  0.033  0.000  0.000  0.000  0.000  0.000  0.209
tot    0.218  0.067  0.067  0.067  0.000  0.000  0.000  0.000  0.000  0.419
 
band     3 # energy    4.57833426 # occ.  2.00000000
 
ion      s     py     pz     px    dxy    dyz    dz2    dxz  x2-y2    tot
    1  0.000  0.112  0.000  0.112  0.000  0.000  0.000  0.000  0.000  0.225
    2  0.000  0.112  0.000  0.112  0.000  0.000  0.000  0.000  0.000  0.225
tot    0.000  0.225  0.000  0.225  0.000  0.000  0.000  0.000  0.000  0.449
 
band     4 # energy    4.57854297 # occ.  2.00000000
 
ion      s     py     pz     px    dxy    dyz    dz2    dxz  x2-y2    tot
    1  0.000  0.037  0.150  0.037  0.000  0.000  0.000  0.000  0.000  0.225
    2  0.000  0.037  0.150  0.037  0.000  0.000  0.000  0.000  0.000  0.225
tot    0.000  0.075  0.300  0.075  0.000  0.000  0.000  0.000  0.000  0.449
 
band     5 # energy    7.28334993 # occ.  0.00000000
 
ion      s     py     pz     px    dxy    dyz    dz2    dxz  x2-y2    tot
    1  0.179  0.010  0.010  0.010  0.000  0.000  0.000  0.000  0.000  0.207
    2  0.179  0.010  0.010  0.010  0.000  0.000  0.000  0.000  0.000  0.207
tot    0.357  0.019  0.019  0.019  0.000  0.000  0.000  0.000  0.000  0.415
 
band     6 # energy    9.18947483 # occ.  0.00000000
 
ion      s     py     pz     px    dxy    dyz    dz2    dxz  x2-y2    tot
    1  0.000  0.056  0.000  0.056  0.000  0.000  0.000  0.000  0.000  0.113
    2  0.000  0.056  0.000  0.056  0.000  0.000  0.000  0.000  0.000  0.113
tot    0.000  0.113  0.000  0.113  0.000  0.000  0.000  0.000  0.000  0.225
 
band     7 # energy    9.18985059 # occ.  0.00000000
 
ion      s     py     pz     px    dxy    dyz    dz2    dxz  x2-y2    tot
    1  0.000  0.019  0.075  0.019  0.000  0.000  0.000  0.000  0.000  0.113
    2  0.000  0.019  0.075  0.019  0.000  0.000  0.000  0.000  0.000  0.113
tot    0.000  0.038  0.150  0.038  0.000  0.000  0.000  0.000  0.000  0.225
 
band     8 # energy   13.51162642 # occ.  0.00000000
 
ion      s     py     pz     px    dxy    dyz    dz2    dxz  x2-y2    tot
    1  0.003  0.029  0.029  0.029  0.000  0.000  0.000  0.000  0.000  0.090
    2  0.003  0.029  0.029  0.029  0.000  0.000  0.000  0.000  0.000  0.090
tot    0.007  0.058  0.058  0.058  0.000  0.000  0.000  0.000  0.000  0.181
 

 k-point    10 :    0.42857143 0.00000000 0.00000000     weight = 0.00086384

band     1 # energy   -4.16577366 # occ.  2.00000000
 
ion      s     py     pz     px    dxy    dyz    dz2    dxz  x2-y2    tot
    1  0.220  0.005  0.005  0.005  0.000  0.000  0.000  0.000  0.000  0.235
    2  0.220  0.005  0.005  0.005  0.000  0.000  0.000  0.000  0.000  0.235
tot    0.439  0.010  0.010  0.010  0.000  0.000  0.000  0.000  0.000  0.470
 
band     2 # energy   -0.86622649 # occ.  2.00000000
 
ion      s     py     pz     px    dxy    dyz    dz2    dxz  x2-y2    tot
    1  0.105  0.033  0.033  0.033  0.000  0.000  0.000  0.000  0.000  0.202
    2  0.105  0.033  0.033  0.033  0.000  0.000  0.000  0.000  0.000  0.202
tot    0.209  0.065  0.065  0.065  0.000  0.000  0.000  0.000  0.000  0.404
 
band     3 # energy    4.51339684 # occ.  2.00000000
 
ion      s     py     pz     px    dxy    dyz    dz2    dxz  x2-y2    tot
    1  0.000  0.113  0.000  0.113  0.000  0.000  0.000  0.000  0.000  0.226
    2  0.000  0.113  0.000  0.113  0.000  0.000  0.000  0.000  0.000  0.226
tot    0.000  0.226  0.000  0.226  0.000  0.000  0.000  0.000  0.000  0.451
 
band     4 # energy    4.51359147 # occ.  2.00000000
 
ion      s     py     pz     px    dxy    dyz    dz2    dxz  x2-y2    tot
    1  0.000  0.038  0.150  0.038  0.000  0.000  0.000  0.000  0.000  0.226
    2  0.000  0.038  0.150  0.038  0.000  0.000  0.000  0.000  0.000  0.226
tot    0.000  0.075  0.301  0.075  0.000  0.000  0.000  0.000  0.000  0.451
 
band     5 # energy    7.25569085 # occ.  0.00000000
 
ion      s     py     pz     px    dxy    dyz    dz2    dxz  x2-y2    tot
    1  0.179  0.008  0.008  0.008  0.000  0.000  0.000  0.000  0.000  0.204
    2  0.179  0.008  0.008  0.008  0.000  0.000  0.000  0.000  0.000  0.204
tot    0.357  0.017  0.017  0.017  0.000  0.000  0.000  0.000  0.000  0.407
 
band     6 # energy    9.13801367 # occ.  0.00000000
 
ion      s     py     pz     px    dxy    dyz    dz2    dxz  x2-y2    tot
    1  0.000  0.053  0.000  0.053  0.000  0.000  0.000  0.000  0.000  0.106
    2  0.000  0.053  0.000  0.053  0.000  0.000  0.000  0.000  0.000  0.106
tot    0.000  0.106  0.000  0.106  0.000  0.000  0.000  0.000  0.000  0.212
 
band     7 # energy    9.13839260 # occ.  0.00000000
 
ion      s     py     pz     px    dxy    dyz    dz2    dxz  x2-y2    tot
    1  0.000  0.018  0.071  0.018  0.000  0.000  0.000  0.000  0.000  0.106
    2  0.000  0.018  0.071  0.018  0.000  0.000  0.000  0.000  0.000  0.106
tot    0.000  0.035  0.141  0.035  0.000  0.000  0.000  0.000  0.000  0.212
 
band     8 # energy   13.45289562 # occ.  0.00000000
 
ion      s     py     pz     px    dxy    dyz    dz2    dxz  x2-y2    tot
    1  0.004  0.022  0.022  0.022  0.000  0.000  0.000  0.000  0.000  0.069
    2  0.004  0.022  0.022  0.022  0.000  0.000  0.000  0.000  0.000  0.069
tot    0.008  0.043  0.043  0.043  0.000  0.000  0.000  0.000  0.000  0.138
 

 k-point    11 :    0.47619048 0.00000000 0.00000000     weight = 0.00086384

band     1 # energy   -3.94812718 # occ.  2.00000000
 
ion      s     py     pz     px    dxy    dyz    dz2    dxz  x2-y2    tot
    1  0.226  0.005  0.005  0.005  0.000  0.000  0.000  0.000  0.000  0.240
    2  0.226  0.005  0.005  0.005  0.000  0.000  0.000  0.000  0.000  0.240