fcc Si                                  
           1
     1.950000    1.950000    0.000000
     0.000000    1.950000    1.950000
     1.950000    0.000000    1.950000
   Si
   2
Direct configuration=     1
   0.00000000  0.00000000  0.00000000
   0.25000000  0.25000000  0.25000000
fcc Si                                  
           1
     4.534940    4.534940    0.000000
     0.000000    4.534940    4.534940
     4.534940    0.000000    4.534940
   Si
   2
Direct configuration=     2
  -0.00000000 -0.00000000 -0.00000000
   0.25000000  0.25000000  0.25000000
fcc Si                                  
           1
     4.217309    4.217309    0.000000
     0.000000    4.217309    4.217309
     4.217309    0.000000    4.217309
   Si
   2
Direct configuration=     3
  -0.00000000 -0.00000000 -0.00000000
   0.25000000  0.25000000  0.25000000
fcc Si                                  
           1
     3.955791    3.955791    0.000000
     0.000000    3.955791    3.955791
     3.955791    0.000000    3.955791
   Si
   2
Direct configuration=     4
  -0.00000000 -0.00000000 -0.00000000
   0.25000000  0.25000000  0.25000000
fcc Si                                  
           1
     2.952896    2.952896    0.000000
     0.000000    2.952896    2.952896
     2.952896    0.000000    2.952896
   Si
   2
Direct configuration=     5
  -0.00000000 -0.00000000 -0.00000000
   0.25000000  0.25000000  0.25000000
fcc Si                                  
           1
     2.451448    2.451448    0.000000
     0.000000    2.451448    2.451448
     2.451448    0.000000    2.451448
   Si
   2
Direct configuration=     6
  -0.00000000 -0.00000000 -0.00000000
   0.25000000  0.25000000  0.25000000
fcc Si                                  
           1
     2.811065    2.811065    0.000000
     0.000000    2.811065    2.811065
     2.811065    0.000000    2.811065
   Si
   2
Direct configuration=     7
  -0.00000000 -0.00000000 -0.00000000
   0.25000000  0.25000000  0.25000000
fcc Si                                  
           1
     2.716394    2.716394    0.000000
     0.000000    2.716394    2.716394
     2.716394    0.000000    2.716394
   Si
   2
Direct configuration=     8
  -0.00000000 -0.00000000 -0.00000000
   0.25000000  0.25000000  0.25000000
fcc Si                                  
           1
     2.732927    2.732927    0.000000
     0.000000    2.732927    2.732927
     2.732927    0.000000    2.732927
   Si
   2
Direct configuration=     9
  -0.00000000 -0.00000000 -0.00000000
   0.25000000  0.25000000  0.25000000
